 vasp.5.4.4.18Apr17-6-g9f103f2a35 (build May 09 2017 17:24:04) gamma-only       
  
 executed on             LinuxIFC date 2022.05.26  01:48:48
 running on   28 total cores
 distrk:  each k-point on   28 cores,    1 groups
 distr:  one band on NCORES_PER_BAND=   4 cores,    7 groups


--------------------------------------------------------------------------------------------------------


 INCAR:
 POTCAR:    PAW_PBE N 08Apr2002                   
 POTCAR:    PAW_PBE C 08Apr2002                   
 POTCAR:    PAW_PBE N 08Apr2002                   
   VRHFIN =N: s2p3                                                              
   LEXCH  = PE                                                                  
   EATOM  =   264.5486 eV,   19.4438 Ry                                         
                                                                                
   TITEL  = PAW_PBE N 08Apr2002                                                 
   LULTRA =        F    use ultrasoft PP ?                                      
   IUNSCR =        1    unscreen: 0-lin 1-nonlin 2-no                           
   RPACOR =    1.200    partial core radius                                     
   POMASS =   14.001; ZVAL   =    5.000    mass and valenz                      
   RCORE  =    1.500    outmost cutoff radius                                   
   RWIGS  =    1.400; RWIGS  =    0.741    wigner-seitz radius (au A)           
   ENMAX  =  400.000; ENMIN  =  300.000 eV                                      
   ICORE  =        2    local potential                                         
   LCOR   =        T    correct aug charges                                     
   LPAW   =        T    paw PP                                                  
   EAUG   =  627.112                                                            
   DEXC   =    0.000                                                            
   RMAX   =    1.529    core radius for proj-oper                               
   RAUG   =    1.300    factor for augmentation sphere                          
   RDEP   =    1.514    radius for radial grids                                 
   RDEPT  =    1.338    core radius for aug-charge                              
                                                                                
   Atomic configuration                                                         
    4 entries                                                                   
     n  l   j            E        occ.                                          
     1  0  0.50      -384.7179   2.0000                                         
     2  0  0.50       -18.5828   2.0000                                         
     2  1  0.50        -7.0898   3.0000                                         
     3  2  1.50        -6.8029   0.0000                                         
   Description                                                                  
     l       E           TYP  RCUT    TYP  RCUT                                 
     0    -18.5828119     23  1.200                                             
     0    -13.5018863     23  1.200                                             
     1     -7.0897853     23  1.500                                             
     1      9.5240782     23  1.500                                             
     2     -6.8029130      7  1.500                                             
  local pseudopotential read in
  partial core-charges read in
  partial kinetic energy density read in
  atomic valenz-charges read in
  non local Contribution for L=           0  read in
    real space projection operators read in
  non local Contribution for L=           0  read in
    real space projection operators read in
  non local Contribution for L=           1  read in
    real space projection operators read in
  non local Contribution for L=           1  read in
    real space projection operators read in
    PAW grid and wavefunctions read in
 
   number of l-projection  operators is LMAX  =           4
   number of lm-projection operators is LMMAX =           8
 
 POTCAR:    PAW_PBE C 08Apr2002                   
   VRHFIN =C: s2p2                                                              
   LEXCH  = PE                                                                  
   EATOM  =   147.1560 eV,   10.8157 Ry                                         
                                                                                
   TITEL  = PAW_PBE C 08Apr2002                                                 
   LULTRA =        F    use ultrasoft PP ?                                      
   IUNSCR =        1    unscreen: 0-lin 1-nonlin 2-no                           
   RPACOR =    1.200    partial core radius                                     
   POMASS =   12.011; ZVAL   =    4.000    mass and valenz                      
   RCORE  =    1.500    outmost cutoff radius                                   
   RWIGS  =    1.630; RWIGS  =    0.863    wigner-seitz radius (au A)           
   ENMAX  =  400.000; ENMIN  =  300.000 eV                                      
   ICORE  =        2    local potential                                         
   LCOR   =        T    correct aug charges                                     
   LPAW   =        T    paw PP                                                  
   EAUG   =  644.873                                                            
   DEXC   =    0.000                                                            
   RMAX   =    1.529    core radius for proj-oper                               
   RAUG   =    1.300    factor for augmentation sphere                          
   RDEP   =    1.501    radius for radial grids                                 
   RDEPT  =    1.300    core radius for aug-charge                              
                                                                                
   Atomic configuration                                                         
    4 entries                                                                   
     n  l   j            E        occ.                                          
     1  0  0.50      -273.3789   2.0000                                         
     2  0  0.50       -13.7508   2.0000                                         
     2  1  0.50        -5.2854   2.0000                                         
     3  2  1.50        -5.4423   0.0000                                         
   Description                                                                  
     l       E           TYP  RCUT    TYP  RCUT                                 
     0    -13.7508458     23  1.200                                             
     0     -8.2022199     23  1.200                                             
     1     -5.2854383     23  1.500                                             
     1     34.0145650     23  1.500                                             
     2     -5.4423304      7  1.500                                             
  local pseudopotential read in
  partial core-charges read in
  partial kinetic energy density read in
  atomic valenz-charges read in
  non local Contribution for L=           0  read in
    real space projection operators read in
  non local Contribution for L=           0  read in
    real space projection operators read in
  non local Contribution for L=           1  read in
    real space projection operators read in
  non local Contribution for L=           1  read in
    real space projection operators read in
    PAW grid and wavefunctions read in
 
   number of l-projection  operators is LMAX  =           4
   number of lm-projection operators is LMMAX =           8
 
 Optimization of the real space projectors (new method)

 maximal supplied QI-value         = 25.13
 optimisation between [QCUT,QGAM] = [ 11.56, 23.12] = [ 37.43,149.72] Ry 
 Optimized for a Real-space Cutoff    1.25 Angstroem

   l    n(q)    QCUT    max X(q) W(low)/X(q) W(high)/X(q)  e(spline) 
   0      9    11.561    79.467    0.52E-04    0.16E-03    0.37E-06
   0      9    11.561    66.151    0.51E-04    0.16E-03    0.37E-06
   1      8    11.561    18.886    0.46E-03    0.28E-03    0.80E-06
   1      8    11.561    13.488    0.47E-03    0.29E-03    0.82E-06
 Optimization of the real space projectors (new method)

 maximal supplied QI-value         = 25.13
 optimisation between [QCUT,QGAM] = [ 11.56, 23.12] = [ 37.43,149.72] Ry 
 Optimized for a Real-space Cutoff    1.04 Angstroem

   l    n(q)    QCUT    max X(q) W(low)/X(q) W(high)/X(q)  e(spline) 
   0      7    11.561   115.676    0.20E-03    0.60E-03    0.21E-06
   0      7    11.561    87.132    0.20E-03    0.59E-03    0.21E-06
   1      7    11.561     4.429    0.23E-03    0.35E-03    0.15E-06
   1      7    11.561     2.733    0.18E-03    0.25E-03    0.12E-06

 ----------------------------------------------------------------------------- 
|                                                                             |
|  ADVICE TO THIS USER RUNNING 'VASP/VAMP'   (HEAR YOUR MASTER'S VOICE ...):  |
|                                                                             |
|      You enforced a specific xc-type in the INCAR file,                     |
|      a different type was found on the POTCAR file                          |
|          I HOPE YOU KNOW, WHAT YOU ARE  DOING                               |
|                                                                             |
 ----------------------------------------------------------------------------- 

  PAW_PBE N 08Apr2002                   :
 energy of atom  1       EATOM= -264.5486
 kinetic energy error for atom=    0.0125 (will be added to EATOM!!)
  PAW_PBE C 08Apr2002                   :
 energy of atom  2       EATOM= -147.1560
 kinetic energy error for atom=    0.0071 (will be added to EATOM!!)
 
 
 POSCAR: cif2pos.py                              
  positions in direct lattice
  velocities in cartesian coordinates
 exchange correlation table for  LEXCH =       14
   RHO(1)=    0.500       N(1)  =     2000
   RHO(2)=  100.500       N(2)  =     4000
 


--------------------------------------------------------------------------------------------------------


 ion  position               nearest neighbor table
   1  0.408  0.408  0.408-  63 1.48 128 1.48 186 1.48
   2  0.412  0.590  0.590-  55 1.50 126 1.51 180 1.51
   3  0.500  0.500  0.833- 190 1.55  29 1.56 136 1.56  82 1.56
   4  0.500  0.500  0.167-  83 1.55 137 1.55 191 1.56  30 1.56
   5  0.500  0.833  0.500- 138 1.55  31 1.56  84 1.56 192 1.56
   6  0.500  0.834  0.834-  32 1.55  85 1.55 139 1.56 193 1.56
   7  0.500  0.833  0.167- 140 1.55 194 1.55  86 1.56  33 1.56
   8  0.500  0.167  0.500-  87 1.55 195 1.55 141 1.56  34 1.56
   9  0.500  0.167  0.833- 196 1.55 142 1.55  88 1.56  35 1.56
  10  0.500  0.166  0.166-  89 1.55  36 1.55 143 1.56 197 1.56
  11  0.833  0.500  0.500-  90 1.55  37 1.56 144 1.56 198 1.56
  12  0.834  0.500  0.834-  38 1.55 145 1.55  91 1.56 199 1.56
  13  0.833  0.500  0.167-  92 1.55 200 1.55 146 1.56  39 1.56
  14  0.834  0.834  0.500-  40 1.55 201 1.55 147 1.56  93 1.56
  15  0.833  0.833  0.833-  94 1.56 148 1.56 202 1.56  41 1.56
  16  0.833  0.833  0.167- 203 1.56 149 1.56  95 1.56  42 1.56
  17  0.833  0.167  0.500-  96 1.55 150 1.55 204 1.56  43 1.56
  18  0.833  0.167  0.833- 151 1.56  97 1.56 205 1.56  44 1.56
  19  0.833  0.167  0.167- 152 1.56 206 1.56  45 1.56  98 1.56
  20  0.167  0.500  0.500- 153 1.55 207 1.55  99 1.56  46 1.56
  21  0.167  0.500  0.833- 208 1.55 100 1.55 154 1.56  47 1.56
  22  0.166  0.500  0.166- 155 1.55  48 1.55 101 1.56 209 1.56
  23  0.167  0.833  0.500- 156 1.55 102 1.55 210 1.56  49 1.56
  24  0.167  0.833  0.833- 103 1.56 157 1.56 211 1.56  50 1.56
  25  0.167  0.833  0.167- 104 1.56 212 1.56  51 1.56 158 1.56
  26  0.166  0.166  0.500- 213 1.55  52 1.55 159 1.56 105 1.56
  27  0.167  0.167  0.833- 106 1.56 160 1.56  53 1.56 214 1.56
  28  0.167  0.167  0.167-  54 1.56 215 1.56 161 1.56 107 1.56
  29  0.417  0.417  0.749-  61 1.55 126 1.55   3 1.56 187 1.56
  30  0.417  0.417  0.083-  62 1.55 127 1.55 188 1.56   4 1.56
  31  0.417  0.749  0.417-  57 1.55 180 1.55   5 1.56 131 1.56
  32  0.417  0.751  0.751-   6 1.55 129 1.56 181 1.56  55 1.56
  33  0.417  0.750  0.084-  56 1.55   7 1.56 130 1.56 182 1.56
  34  0.417  0.083  0.417- 183 1.55  60 1.55 134 1.56   8 1.56
  35  0.417  0.084  0.750-  58 1.55   9 1.56 184 1.56 132 1.56
  36  0.417  0.083  0.083-  59 1.55  10 1.55 133 1.56 185 1.56
  37  0.749  0.417  0.417- 110 1.55 168 1.55  11 1.56  72 1.56
  38  0.751  0.417  0.751-  12 1.55  70 1.56 169 1.56 108 1.56
  39  0.750  0.417  0.084- 109 1.55  13 1.56  71 1.56 170 1.56
  40  0.751  0.751  0.417-  14 1.55  66 1.56 113 1.56 162 1.56
  41  0.750  0.750  0.750- 163 1.56 111 1.56  64 1.56  15 1.56
  42  0.750  0.750  0.083-  65 1.56 112 1.56 164 1.56  16 1.56
  43  0.750  0.084  0.417- 165 1.55  17 1.56  69 1.56 116 1.56
  44  0.750  0.083  0.750-  67 1.56 166 1.56 114 1.56  18 1.56
  45  0.750  0.083  0.083- 115 1.56 167 1.56  68 1.56  19 1.56
  46  0.083  0.417  0.417- 177 1.55 119 1.55  81 1.56  20 1.56
  47  0.084  0.417  0.750- 117 1.55  21 1.56 178 1.56  79 1.56
  48  0.083  0.417  0.083- 118 1.55  22 1.55  80 1.56 179 1.56
  49  0.084  0.750  0.417- 171 1.55  23 1.56 122 1.56  75 1.56
  50  0.083  0.750  0.750- 120 1.56 172 1.56  73 1.56  24 1.56
  51  0.083  0.750  0.083-  74 1.56 173 1.56 121 1.56  25 1.56
  52  0.083  0.083  0.417- 174 1.55  26 1.55 125 1.56  78 1.56
  53  0.083  0.083  0.750-  76 1.56 123 1.56 175 1.56  27 1.56
  54  0.083  0.083  0.083-  28 1.56  77 1.56 124 1.56 176 1.56
  55  0.499  0.667  0.667-   2 1.50 138 1.56 190 1.56  32 1.56
  56  0.500  0.667  0.000-  33 1.55 191 1.55 139 1.56  82 1.56
  57  0.501  0.665  0.335- 189 1.51  31 1.55  83 1.56 140 1.57
  58  0.500  0.000  0.667-  35 1.55 141 1.55 193 1.56  84 1.56
  59  0.500  0.000  0.000-  36 1.55  85 1.55 142 1.55 194 1.55
  60  0.500  1.000  0.333-  34 1.55 192 1.56 143 1.56  86 1.56
  61  0.501  0.335  0.665- 135 1.51  29 1.55  87 1.56 196 1.57
  62  0.500  0.333  1.000-  30 1.55 136 1.56 197 1.56  88 1.56
  63  0.496  0.333  0.333-   1 1.48  89 1.55 137 1.57 195 1.57
  64  0.833  0.667  0.667-  41 1.56  90 1.56 147 1.56 199 1.56
  65  0.833  0.667  0.000-  42 1.56 148 1.56 200 1.56  91 1.56
  66  0.833  0.667  0.333- 149 1.56 198 1.56  40 1.56  92 1.56
  67  0.833  0.000  0.667-  44 1.56 202 1.56 150 1.56  93 1.56
  68  0.833  0.000  0.000- 151 1.56 203 1.56  45 1.56  94 1.56
  69  0.833  0.000  0.333- 152 1.55  95 1.56 201 1.56  43 1.56
  70  0.833  0.333  0.667- 205 1.56 144 1.56  38 1.56  96 1.56
  71  0.833  0.333  0.000- 206 1.55  97 1.56 145 1.56  39 1.56
  72  0.833  0.334  0.334- 146 1.56 204 1.56  98 1.56  37 1.56
  73  0.167  0.667  0.667-  50 1.56 156 1.56 208 1.56  99 1.56
  74  0.167  0.667  0.000-  51 1.56 157 1.56 209 1.56 100 1.56
  75  0.168  0.666  0.334- 158 1.55 101 1.56  49 1.56 207 1.57
  76  0.167  0.000  0.667-  53 1.56 211 1.56 159 1.56 102 1.56
  77  0.167  1.000  1.000-  54 1.56 103 1.56 160 1.56 212 1.56
  78  0.167  1.000  0.333- 161 1.55 104 1.56 210 1.56  52 1.56
  79  0.168  0.334  0.666- 214 1.55 105 1.56  47 1.56 153 1.57
  80  0.167  0.333  1.000- 215 1.55 106 1.56 154 1.56  48 1.56
  81  0.166  0.333  0.333- 107 1.55  46 1.56 155 1.56 213 1.56
  82  0.417  0.583  0.917- 181 1.56 127 1.56   3 1.56  56 1.56
  83  0.417  0.582  0.252-   4 1.55  57 1.56 128 1.57 182 1.57
  84  0.417  0.917  0.583- 129 1.56 183 1.56   5 1.56  58 1.56
  85  0.417  0.917  0.917-   6 1.55  59 1.55 184 1.56 130 1.56
  86  0.417  0.916  0.250-   7 1.56 185 1.56 131 1.56  60 1.56
  87  0.417  0.252  0.582-   8 1.55  61 1.56 186 1.57 132 1.57
  88  0.417  0.250  0.916-   9 1.56 133 1.56 187 1.56  62 1.56
  89  0.416  0.249  0.249-  10 1.55  63 1.55 134 1.56 188 1.56
  90  0.750  0.583  0.583-  11 1.55  64 1.56 108 1.56 162 1.56
  91  0.750  0.583  0.917-  65 1.56  12 1.56 109 1.56 163 1.56
  92  0.750  0.583  0.250-  13 1.55 164 1.56  66 1.56 110 1.57
  93  0.750  0.917  0.583-  67 1.56  14 1.56 165 1.56 111 1.56
  94  0.750  0.917  0.917- 166 1.56 112 1.56  15 1.56  68 1.56
  95  0.750  0.917  0.250- 113 1.56 167 1.56  16 1.56  69 1.56
  96  0.750  0.250  0.583-  17 1.55 114 1.56  70 1.56 168 1.57
  97  0.750  0.250  0.917- 169 1.56 115 1.56  18 1.56  71 1.56
  98  0.750  0.250  0.250- 116 1.55 170 1.55  72 1.56  19 1.56
  99  0.084  0.583  0.583- 117 1.55 171 1.55  73 1.56  20 1.56
 100  0.083  0.583  0.917- 118 1.55  21 1.55 172 1.56  74 1.56
 101  0.083  0.583  0.250-  22 1.56 119 1.56 173 1.56  75 1.56
 102  0.083  0.917  0.583- 174 1.55  23 1.55 120 1.56  76 1.56
 103  0.083  0.917  0.917-  24 1.56 121 1.56 175 1.56  77 1.56
 104  0.083  0.916  0.250- 122 1.55  78 1.56  25 1.56 176 1.56
 105  0.083  0.250  0.583-  26 1.56 177 1.56 123 1.56  79 1.56
 106  0.083  0.250  0.916- 178 1.55  80 1.56  27 1.56 124 1.56
 107  0.083  0.250  0.250-  81 1.55 125 1.55 179 1.55  28 1.56
 108  0.667  0.499  0.667- 135 1.50  90 1.56 190 1.56  38 1.56
 109  0.667  0.500  0.000-  39 1.55 191 1.55  91 1.56 136 1.56
 110  0.665  0.501  0.335- 189 1.51  37 1.55 137 1.56  92 1.57
 111  0.667  0.833  0.667-  41 1.56 138 1.56  93 1.56 193 1.56
 112  0.667  0.833  0.000-  42 1.56  94 1.56 194 1.56 139 1.56
 113  0.667  0.833  0.333-  95 1.56 192 1.56  40 1.56 140 1.56
 114  0.667  0.167  0.667-  44 1.56  96 1.56 196 1.56 141 1.56
 115  0.667  0.167  0.000-  45 1.56  97 1.56 197 1.56 142 1.56
 116  0.666  0.168  0.334-  98 1.55 143 1.56  43 1.56 195 1.57
 117  0.000  0.500  0.667-  47 1.55  99 1.55 199 1.56 144 1.56
 118  0.000  0.500  0.000-  48 1.55 145 1.55 100 1.55 200 1.55
 119  1.000  0.500  0.333-  46 1.55 198 1.56 101 1.56 146 1.56
 120  0.000  0.833  0.667-  50 1.56 202 1.56 102 1.56 147 1.56
 121  0.000  0.833  0.000- 103 1.56 203 1.56  51 1.56 148 1.56
 122  0.000  0.833  0.333- 104 1.55 149 1.56 201 1.56  49 1.56
 123  0.000  0.167  0.667-  53 1.56 205 1.56 105 1.56 150 1.56
 124  1.000  0.167  1.000-  54 1.56 151 1.56 106 1.56 206 1.56
 125  1.000  0.167  0.333- 107 1.55 152 1.56 204 1.56  52 1.56
 126  0.335  0.501  0.665-   2 1.51  29 1.55 153 1.56 208 1.57
 127  0.333  0.500  1.000-  30 1.55  82 1.56 209 1.56 154 1.56
 128  0.333  0.496  0.333-   1 1.48 155 1.55  83 1.57 207 1.57
 129  0.333  0.833  0.667- 211 1.56  84 1.56  32 1.56 156 1.56
 130  0.333  0.833  0.000- 212 1.55 157 1.56  85 1.56  33 1.56
 131  0.334  0.833  0.334-  86 1.56 210 1.56 158 1.56  31 1.56
 132  0.334  0.168  0.666- 214 1.55 159 1.56  35 1.56  87 1.57
 133  0.333  0.167  1.000- 215 1.55 160 1.56  88 1.56  36 1.56
 134  0.333  0.166  0.333- 161 1.55  34 1.56  89 1.56 213 1.56
 135  0.590  0.412  0.590- 108 1.50  61 1.51 168 1.51
 136  0.583  0.417  0.917- 169 1.56  62 1.56   3 1.56 109 1.56
 137  0.582  0.417  0.252-   4 1.55 110 1.56  63 1.57 170 1.57
 138  0.583  0.750  0.583-   5 1.55 111 1.56  55 1.56 162 1.56
 139  0.583  0.750  0.917- 112 1.56   6 1.56  56 1.56 163 1.56
 140  0.583  0.750  0.250-   7 1.55 164 1.56 113 1.56  57 1.57
 141  0.583  0.084  0.583-  58 1.55 165 1.55 114 1.56   8 1.56
 142  0.583  0.083  0.917-  59 1.55   9 1.55 166 1.56 115 1.56
 143  0.583  0.083  0.250-  10 1.56  60 1.56 167 1.56 116 1.56
 144  0.917  0.417  0.583-  70 1.56 177 1.56  11 1.56 117 1.56
 145  0.917  0.417  0.917-  12 1.55 118 1.55 178 1.56  71 1.56
 146  0.916  0.417  0.250-  13 1.56 179 1.56  72 1.56 119 1.56
 147  0.917  0.750  0.583- 120 1.56  14 1.56 171 1.56  64 1.56
 148  0.917  0.750  0.917- 172 1.56  65 1.56  15 1.56 121 1.56
 149  0.917  0.750  0.250-  66 1.56 173 1.56  16 1.56 122 1.56
 150  0.917  0.083  0.583- 174 1.55  17 1.55  67 1.56 123 1.56
 151  0.917  0.083  0.917-  18 1.56  68 1.56 175 1.56 124 1.56
 152  0.916  0.083  0.250-  69 1.55 125 1.56  19 1.56 176 1.56
 153  0.252  0.417  0.582-  20 1.55 126 1.56 186 1.57  79 1.57
 154  0.250  0.417  0.916-  21 1.56  80 1.56 187 1.56 127 1.56
 155  0.249  0.416  0.249-  22 1.55 128 1.55  81 1.56 188 1.56
 156  0.250  0.750  0.583-  23 1.55  73 1.56 129 1.56 180 1.57
 157  0.250  0.750  0.917- 181 1.56  74 1.56  24 1.56 130 1.56
 158  0.250  0.750  0.250-  75 1.55 182 1.55 131 1.56  25 1.56
 159  0.250  0.083  0.583-  26 1.56 183 1.56  76 1.56 132 1.56
 160  0.250  0.083  0.916- 184 1.55 133 1.56  27 1.56  77 1.56
 161  0.250  0.083  0.250- 134 1.55  78 1.55 185 1.55  28 1.56
 162  0.667  0.667  0.499- 189 1.50 138 1.56  90 1.56  40 1.56
 163  0.667  0.667  0.833-  41 1.56 190 1.56 139 1.56  91 1.56
 164  0.667  0.667  0.167-  42 1.56  92 1.56 140 1.56 191 1.56
 165  0.667  0.000  0.500-  43 1.55 141 1.55  93 1.56 192 1.56
 166  0.667  0.000  0.833-  44 1.56  94 1.56 142 1.56 193 1.56
 167  0.667  0.000  0.167-  45 1.56  95 1.56 143 1.56 194 1.56
 168  0.665  0.335  0.501- 135 1.51  37 1.55 195 1.56  96 1.57
 169  0.667  0.333  0.833-  97 1.56 136 1.56  38 1.56 196 1.56
 170  0.666  0.334  0.168-  98 1.55 197 1.56  39 1.56 137 1.57
 171  0.000  0.667  0.500-  49 1.55  99 1.55 147 1.56 198 1.56
 172  0.000  0.667  0.833-  50 1.56 148 1.56 100 1.56 199 1.56
 173  0.000  0.667  0.167-  51 1.56 149 1.56 101 1.56 200 1.56
 174  0.000  0.000  0.500-  52 1.55 201 1.55 150 1.55 102 1.55
 175  0.000  0.000  0.833- 103 1.56 151 1.56  53 1.56 202 1.56
 176  1.000  1.000  0.167-  54 1.56 203 1.56 152 1.56 104 1.56
 177  1.000  0.333  0.500-  46 1.55 144 1.56 105 1.56 204 1.56
 178  0.000  0.333  0.833- 106 1.55 205 1.56 145 1.56  47 1.56
 179  1.000  0.333  0.167- 107 1.55 206 1.56 146 1.56  48 1.56
 180  0.335  0.665  0.501-   2 1.51  31 1.55 207 1.56 156 1.57
 181  0.333  0.667  0.833- 157 1.56  82 1.56  32 1.56 208 1.56
 182  0.334  0.666  0.168- 158 1.55 209 1.56  33 1.56  83 1.57
 183  0.333  1.000  0.500-  34 1.55  84 1.56 159 1.56 210 1.56
 184  0.333  0.000  0.833- 160 1.55 211 1.56  85 1.56  35 1.56
 185  0.333  1.000  0.167- 161 1.55 212 1.56  86 1.56  36 1.56
 186  0.333  0.333  0.496-   1 1.48 213 1.55 153 1.57  87 1.57
 187  0.334  0.334  0.833-  88 1.56 154 1.56 214 1.56  29 1.56
 188  0.333  0.333  0.166- 215 1.55  30 1.56 155 1.56  89 1.56
 189  0.590  0.590  0.412- 162 1.50 110 1.51  57 1.51
 190  0.583  0.583  0.750-   3 1.55 163 1.56 108 1.56  55 1.56
 191  0.583  0.583  0.084-  56 1.55 109 1.55 164 1.56   4 1.56
 192  0.583  0.917  0.417- 113 1.56  60 1.56   5 1.56 165 1.56
 193  0.583  0.917  0.750- 166 1.56   6 1.56  58 1.56 111 1.56
 194  0.583  0.917  0.083-  59 1.55   7 1.55 112 1.56 167 1.56
 195  0.582  0.252  0.417-   8 1.55 168 1.56  63 1.57 116 1.57
 196  0.583  0.250  0.750-   9 1.55 114 1.56 169 1.56  61 1.57
 197  0.583  0.250  0.083-  10 1.56  62 1.56 115 1.56 170 1.56
 198  0.917  0.583  0.417-  66 1.56 119 1.56  11 1.56 171 1.56
 199  0.917  0.583  0.750- 172 1.56  12 1.56 117 1.56  64 1.56
 200  0.917  0.583  0.083- 118 1.55  13 1.55  65 1.56 173 1.56
 201  0.917  0.917  0.417-  14 1.55 174 1.55 122 1.56  69 1.56
 202  0.917  0.917  0.750-  67 1.56 120 1.56  15 1.56 175 1.56
 203  0.917  0.917  0.083-  16 1.56  68 1.56 121 1.56 176 1.56
 204  0.916  0.250  0.417-  17 1.56 125 1.56  72 1.56 177 1.56
 205  0.917  0.250  0.750-  70 1.56 123 1.56  18 1.56 178 1.56
 206  0.916  0.250  0.083-  71 1.55 179 1.56  19 1.56 124 1.56
 207  0.252  0.582  0.417-  20 1.55 180 1.56 128 1.57  75 1.57
 208  0.250  0.583  0.750-  21 1.55  73 1.56 181 1.56 126 1.57
 209  0.250  0.583  0.083-  22 1.56 127 1.56  74 1.56 182 1.56
 210  0.250  0.916  0.417-  23 1.56  78 1.56 131 1.56 183 1.56
 211  0.250  0.917  0.750- 129 1.56  76 1.56  24 1.56 184 1.56
 212  0.250  0.916  0.083- 130 1.55 185 1.56  25 1.56  77 1.56
 213  0.249  0.249  0.416-  26 1.55 186 1.55 134 1.56  81 1.56
 214  0.250  0.250  0.750-  79 1.55 132 1.55 187 1.56  27 1.56
 215  0.250  0.250  0.083- 188 1.55 133 1.55  80 1.55  28 1.56
 
  LATTYP: Found a trigonal (rhomboedric) cell.
 ALAT       =    10.7800020844
 COS(alpha) =     0.0008796461
  
  Lattice vectors:
  
 A1 = (  10.7800000000,   0.0047402523,   0.0047402523)
 A2 = (   0.0047402523,  10.7800000000,   0.0047402523)
 A3 = (   0.0047402523,   0.0047402523,  10.7800000000)


Analysis of symmetry for initial positions (statically):
=====================================================================
 Subroutine PRICEL returns:
 Original cell was already a primitive cell.
 

 Routine SETGRP: Setting up the symmetry group for a 
 trigonal (rhombohedral) supercell.


 Subroutine GETGRP returns: Found  6 space group operations
 (whereof  6 operations were pure point group operations)
 out of a pool of 12 trial point group operations.


The static configuration has the point symmetry C_3v.


Analysis of symmetry for dynamics (positions and initial velocities):
=====================================================================
 Subroutine PRICEL returns:
 Original cell was already a primitive cell.
 

 Routine SETGRP: Setting up the symmetry group for a 
 trigonal (rhombohedral) supercell.


 Subroutine GETGRP returns: Found  6 space group operations
 (whereof  6 operations were pure point group operations)
 out of a pool of 12 trial point group operations.


The dynamic configuration has the point symmetry C_3v.


Analysis of structural, dynamic, and magnetic symmetry:
=====================================================================
 Subroutine PRICEL returns:
 Original cell was already a primitive cell.
 

 Routine SETGRP: Setting up the symmetry group for a 
 trigonal (rhombohedral) supercell.


 Subroutine GETGRP returns: Found  6 space group operations
 (whereof  6 operations were pure point group operations)
 out of a pool of 12 trial point group operations.


The magnetic configuration has the point symmetry C_3v.


 Subroutine INISYM returns: Found  6 space group operations
 (whereof  6 operations are pure point group operations),
 and found     1 'primitive' translations

 
 
 KPOINTS: K-Mesh Generated with KP-Resolved Value 

Automatic generation of k-mesh.
Space group operators:
 irot       det(A)        alpha          n_x          n_y          n_z        tau_x        tau_y        tau_z
    1     1.000000     0.000001     1.000000     0.000000     0.000000     0.000000     0.000000     0.000000
    2    -1.000000   180.000000     0.000000     0.707107    -0.707107     0.000000     0.000000     0.000000
    3     1.000000   120.000000    -0.577350    -0.577350    -0.577350     0.000000     0.000000     0.000000
    4    -1.000000   180.000000     0.707107    -0.707107     0.000000     0.000000     0.000000     0.000000
    5     1.000000   120.000000     0.577350     0.577350     0.577350     0.000000     0.000000     0.000000
    6    -1.000000   180.000000     0.707107     0.000000    -0.707107     0.000000     0.000000     0.000000
 
 Subroutine IBZKPT returns following result:
 ===========================================
 
 Found      1 irreducible k-points:
 
 Following reciprocal coordinates:
            Coordinates               Weight
  0.000000  0.000000  0.000000      1.000000
 
 Following cartesian coordinates:
            Coordinates               Weight
  0.000000  0.000000  0.000000      1.000000
 


--------------------------------------------------------------------------------------------------------




 Dimension of arrays:
   k-points           NKPTS =      1   k-points in BZ     NKDIM =      1   number of bands    NBANDS=    546
   number of dos      NEDOS =    301   number of ions     NIONS =    215
   non local maximal  LDIM  =      4   non local SUM 2l+1 LMDIM =      8
   total plane-waves  NPLWV = 216000
   max r-space proj   IRMAX =   1450   max aug-charges    IRDMAX=   2321
   dimension x,y,z NGX =    60 NGY =   60 NGZ =   60
   dimension x,y,z NGXF=   120 NGYF=  120 NGZF=  120
   support grid    NGXF=   120 NGYF=  120 NGZF=  120
   ions per type =               1 214
   NGX,Y,Z   is equivalent  to a cutoff of   9.25,  9.25,  9.25 a.u.
   NGXF,Y,Z  is equivalent  to a cutoff of  18.51, 18.51, 18.51 a.u.

 SYSTEM =  unknown system                          
 POSCAR =  cif2pos.py                              

 Startparameter for this run:
   NWRITE =      2    write-flag & timer
   PREC   = normal    normal or accurate (medium, high low for compatibility)
   ISTART =      1    job   : 0-new  1-cont  2-samecut
   ICHARG =      0    charge: 1-file 2-atom 10-const
   ISPIN  =      2    spin polarized calculation?
   LNONCOLLINEAR =      F non collinear calculations
   LSORBIT =      F    spin-orbit coupling
   INIWAV =      1    electr: 0-lowe 1-rand  2-diag
   LASPH  =      F    aspherical Exc in radial PAW
   METAGGA=      F    non-selfconsistent MetaGGA calc.

 Electronic Relaxation 1
   ENCUT  =  520.0 eV  38.22 Ry    6.18 a.u.  20.04 20.04 20.04*2*pi/ulx,y,z
   ENINI  =  520.0     initial cutoff
   ENAUG  =  644.9 eV  augmentation charge cutoff
   NELM   =     50;   NELMIN=  5; NELMDL=  0     # of ELM steps 
   EDIFF  = 0.1E-07   stopping-criterion for ELM
   LREAL  =      T    real-space projection
   NLSPLINE    = F    spline interpolate recip. space projectors
   LCOMPAT=      F    compatible to vasp.4.4
   GGA_COMPAT  = T    GGA compatible to vasp.4.4-vasp.4.6
   LMAXPAW     = -100 max onsite density
   LMAXMIX     =    2 max onsite mixed and CHGCAR
   VOSKOWN=      0    Vosko Wilk Nusair interpolation
   ROPT   =   -0.00050  -0.00050
 Ionic relaxation
   EDIFFG = -.1E-01   stopping-criterion for IOM
   NSW    =     50    number of steps for IOM
   NBLOCK =      1;   KBLOCK =     50    inner block; outer block 
   IBRION =      2    ionic relax: 0-MD 1-quasi-New 2-CG
   NFREE  =      1    steps in history (QN), initial steepest desc. (CG)
   ISIF   =      2    stress and relaxation
   IWAVPR =     11    prediction:  0-non 1-charg 2-wave 3-comb
   ISYM   =      2    0-nonsym 1-usesym 2-fastsym
   LCORR  =      T    Harris-Foulkes like correction to forces

   POTIM  = 0.3000    time-step for ionic-motion
   TEIN   =    0.0    initial temperature
   TEBEG  =    0.0;   TEEND  =   0.0 temperature during run
   SMASS  =  -3.00    Nose mass-parameter (am)
   estimated Nose-frequenzy (Omega)   =  0.10E-29 period in steps =****** mass=  -0.266E-26a.u.
   SCALEE = 1.0000    scale energy and forces
   NPACO  =    256;   APACO  = 16.0  distance and # of slots for P.C.
   PSTRESS=    0.0 pullay stress

  Mass of Ions in am
   POMASS =  14.00 12.01
  Ionic Valenz
   ZVAL   =   5.00  4.00
  Atomic Wigner-Seitz radii
   RWIGS  =  -1.00 -1.00
  virtual crystal weights 
   VCA    =   1.00  1.00
   NELECT =     862.0000    total number of electrons
   NUPDOWN=       2.0000    fix difference up-down

 DOS related values:
   EMIN   =  10.00;   EMAX   =-10.00  energy-range for DOS
   EFERMI =   0.00
   ISMEAR =     0;   SIGMA  =   0.02  broadening in eV -4-tet -1-fermi 0-gaus

 Electronic relaxation 2 (details)
   IALGO  =     38    algorithm
   LDIAG  =      T    sub-space diagonalisation (order eigenvalues)
   LSUBROT=      F    optimize rotation matrix (better conditioning)
   TURBO    =      0    0=normal 1=particle mesh
   IRESTART =      0    0=no restart 2=restart with 2 vectors
   NREBOOT  =      0    no. of reboots
   NMIN     =      0    reboot dimension
   EREF     =   0.00    reference energy to select bands
   IMIX   =      4    mixing-type and parameters
     AMIX     =   0.40;   BMIX     =  1.00
     AMIX_MAG =   1.60;   BMIX_MAG =  1.00
     AMIN     =   0.10
     WC   =   100.;   INIMIX=   1;  MIXPRE=   1;  MAXMIX= -45

 Intra band minimization:
   WEIMIN = 0.0010     energy-eigenvalue tresh-hold
   EBREAK =  0.46E-11  absolut break condition
   DEPER  =   0.30     relativ break condition  

   TIME   =   0.40     timestep for ELM

  volume/ion in A,a.u.               =       5.83        39.32
  Fermi-wavevector in a.u.,A,eV,Ry     =   1.445302  2.731225 28.421177  2.088898
  Thomas-Fermi vector in A             =   2.563499
 
 Write flags
   LWAVE        =      T    write WAVECAR
   LDOWNSAMPLE  =      F    k-point downsampling of WAVECAR
   LCHARG       =      T    write CHGCAR
   LVTOT        =      F    write LOCPOT, total local potential
   LVHAR        =      F    write LOCPOT, Hartree potential only
   LELF         =      F    write electronic localiz. function (ELF)
   LORBIT       =     11    0 simple, 1 ext, 2 COOP (PROOUT), +10 PAW based schemes


 Dipole corrections
   LMONO  =      F    monopole corrections only (constant potential shift)
   LDIPOL =      F    correct potential (dipole corrections)
   IDIPOL =      0    1-x, 2-y, 3-z, 4-all directions 
   EPSILON=  1.0000000 bulk dielectric constant

 Exchange correlation treatment:
   GGA     =    PS    GGA type
   LEXCH   =    14    internal setting for exchange type
   VOSKOWN=      0    Vosko Wilk Nusair interpolation
   LHFCALC =     F    Hartree Fock is set to
   LHFONE  =     F    Hartree Fock one center treatment
   AEXX    =    0.0000 exact exchange contribution

 Linear response parameters
   LEPSILON=     F    determine dielectric tensor
   LRPA    =     F    only Hartree local field effects (RPA)
   LNABLA  =     F    use nabla operator in PAW spheres
   LVEL    =     F    velocity operator in full k-point grid
   LINTERFAST=   F  fast interpolation
   KINTER  =     0    interpolate to denser k-point grid
   CSHIFT  =0.1000    complex shift for real part using Kramers Kronig
   OMEGAMAX=  -1.0    maximum frequency
   DEG_THRESHOLD= 0.2000000E-02 threshold for treating states as degnerate
   RTIME   =   -0.100 relaxation time in fs
  (WPLASMAI=    0.000 imaginary part of plasma frequency in eV, 0.658/RTIME)
   DFIELD  = 0.0000000 0.0000000 0.0000000 field for delta impulse in time
 
 Orbital magnetization related:
   ORBITALMAG=     F  switch on orbital magnetization
   LCHIMAG   =     F  perturbation theory with respect to B field
   DQ        =  0.001000  dq finite difference perturbation B field
   LLRAUG    =     F  two centre corrections for induced B field



--------------------------------------------------------------------------------------------------------


 conjugate gradient relaxation of ions
 charge density and potential will be updated during run
 spin polarized calculation
 Variant of blocked Davidson
 Davidson routine will perform the subspace rotation
 perform sub-space diagonalisation
    after iterative eigenvector-optimisation
 modified Broyden-mixing scheme, WC =      100.0
 initial mixing is a Kerker type mixing with AMIX =  0.4000 and BMIX =      1.0000
 Hartree-type preconditioning will be used
 using additional bands          115
 real space projection scheme for non local part
 use partial core corrections
 calculate Harris-corrections to forces 
   (improved forces if not selfconsistent)
 use gradient corrections 
 use of overlap-Matrix (Vanderbilt PP)
 Gauss-broadening in eV      SIGMA  =   0.02


--------------------------------------------------------------------------------------------------------


  energy-cutoff  :      520.00
  volume of cell :     1252.73
      direct lattice vectors                 reciprocal lattice vectors
    10.780000000  0.004740252  0.004740252     0.092764414 -0.000040773 -0.000040773
     0.004740252 10.780000000  0.004740252    -0.000040773  0.092764414 -0.000040773
     0.004740252  0.004740252 10.780000000    -0.000040773 -0.000040773  0.092764414

  length of vectors
    10.780002084 10.780002084 10.780002084     0.092764432  0.092764432  0.092764432


 
 old parameters found on file WAVECAR:
  energy-cutoff  :      520.00
  volume of cell :     1252.73
      direct lattice vectors                 reciprocal lattice vectors
    10.780000000  0.004740252  0.004740252     0.092764414 -0.000040773 -0.000040773
     0.004740252 10.780000000  0.004740252    -0.000040773  0.092764414 -0.000040773
     0.004740252  0.004740252 10.780000000    -0.000040773 -0.000040773  0.092764414

  length of vectors

 
 k-points in units of 2pi/SCALE and weight: K-Mesh Generated with KP-Resolved Value 
   0.00000000  0.00000000  0.00000000       1.000
 
 k-points in reciprocal lattice and weights: K-Mesh Generated with KP-Resolved Value 
   0.00000000  0.00000000  0.00000000       1.000
 
 position of ions in fractional coordinates (direct lattice) 
   0.40808049  0.40808049  0.40808049
   0.41239936  0.59001212  0.59001212
   0.50015247  0.50015247  0.83300477
   0.49992111  0.49992111  0.16708674
   0.50015247  0.83300477  0.50015247
   0.49994725  0.83385069  0.83385069
   0.50011717  0.83346425  0.16655442
   0.49992111  0.16708674  0.49992111
   0.50011717  0.16655442  0.83346425
   0.49972837  0.16613748  0.16613748
   0.83300477  0.50015247  0.50015247
   0.83385069  0.49994725  0.83385069
   0.83346425  0.50011717  0.16655442
   0.83385069  0.83385069  0.49994725
   0.83333649  0.83333649  0.83333649
   0.83330738  0.83330738  0.16679772
   0.83346425  0.16655442  0.50011717
   0.83330738  0.16679772  0.83330738
   0.83305448  0.16680046  0.16680046
   0.16708674  0.49992111  0.49992111
   0.16655442  0.50011717  0.83346425
   0.16613748  0.49972837  0.16613748
   0.16655442  0.83346425  0.50011717
   0.16679772  0.83330738  0.83330738
   0.16680046  0.83305448  0.16680046
   0.16613748  0.16613748  0.49972837
   0.16680046  0.16680046  0.83305448
   0.16650465  0.16650465  0.16650465
   0.41716762  0.41716762  0.74928524
   0.41658711  0.41658711  0.08326629
   0.41716762  0.74928524  0.41716762
   0.41714825  0.75099028  0.75099028
   0.41680092  0.74963964  0.08374295
   0.41658711  0.08326629  0.41658711
   0.41680092  0.08374295  0.74963964
   0.41664233  0.08306872  0.08306872
   0.74928524  0.41716762  0.41716762
   0.75099028  0.41714825  0.75099028
   0.74963964  0.41680092  0.08374295
   0.75099028  0.75099028  0.41714825
   0.74999888  0.74999888  0.74999888
   0.75001364  0.75001364  0.08342991
   0.74963964  0.08374295  0.41680092
   0.75001364  0.08342991  0.75001364
   0.74988746  0.08343452  0.08343452
   0.08326629  0.41658711  0.41658711
   0.08374295  0.41680092  0.74963964
   0.08306872  0.41664233  0.08306872
   0.08374295  0.74963964  0.41680092
   0.08342991  0.75001364  0.75001364
   0.08343452  0.74988746  0.08343452
   0.08306872  0.08306872  0.41664233
   0.08343452  0.08343452  0.74988746
   0.08325987  0.08325987  0.08325987
   0.49946070  0.66660469  0.66660469
   0.50003323  0.66655352  0.00015841
   0.50110410  0.66545425  0.33506793
   0.50003323  0.00015841  0.66655352
   0.49996541  0.00001551  0.00001551
   0.49997095  0.99992137  0.33341766
   0.50110410  0.33506793  0.66545425
   0.49997095  0.33341766  0.99992137
   0.49573866  0.33342018  0.33342018
   0.83325676  0.66656572  0.66656572
   0.83337060  0.66669537  0.00008829
   0.83339595  0.66672641  0.33346041
   0.83337060  0.00008829  0.66669537
   0.83328518  0.00004367  0.00004367
   0.83314559  0.00018766  0.33334387
   0.83339595  0.33346041  0.66672641
   0.83314559  0.33334387  0.00018766
   0.83281012  0.33372593  0.33372593
   0.16680796  0.66666224  0.66666224
   0.16677155  0.66660988  0.00011000
   0.16763243  0.66574983  0.33357419
   0.16677155  0.00011000  0.66660988
   0.16668958  0.99992313  0.99992313
   0.16661414  0.99973616  0.33329380
   0.16763243  0.33357419  0.66574983
   0.16661414  0.33329380  0.99973616
   0.16592431  0.33287470  0.33287470
   0.41678221  0.58331435  0.91664530
   0.41749122  0.58172009  0.25162978
   0.41678221  0.91664530  0.58331435
   0.41678381  0.91689400  0.91689400
   0.41670709  0.91646936  0.25008636
   0.41749122  0.25162978  0.58172009
   0.41670709  0.25008636  0.91646936
   0.41623003  0.24866429  0.24866429
   0.74978355  0.58337408  0.58337408
   0.75007743  0.58337441  0.91682251
   0.75044162  0.58312691  0.24963229
   0.75007743  0.91682251  0.58337441
   0.75000148  0.91669967  0.91669967
   0.74992420  0.91677308  0.25009036
   0.75044162  0.24963229  0.58312691
   0.74992420  0.25009036  0.91677308
   0.74952267  0.25034907  0.25034907
   0.08354775  0.58329934  0.58329934
   0.08328732  0.58326012  0.91683175
   0.08345824  0.58311785  0.25005992
   0.08328732  0.91683175  0.58326012
   0.08339044  0.91664030  0.91664030
   0.08338551  0.91645356  0.25004872
   0.08345824  0.25005992  0.58311785
   0.08338551  0.25004872  0.91645356
   0.08291171  0.24979706  0.24979706
   0.66660469  0.49946070  0.66660469
   0.66655352  0.50003323  0.00015841
   0.66545425  0.50110410  0.33506793
   0.66656572  0.83325676  0.66656572
   0.66669537  0.83337060  0.00008829
   0.66672641  0.83339595  0.33346041
   0.66666224  0.16680796  0.66666224
   0.66660988  0.16677155  0.00011000
   0.66574983  0.16763243  0.33357419
   0.00015841  0.50003323  0.66655352
   0.00001551  0.49996541  0.00001551
   0.99992137  0.49997095  0.33341766
   0.00008829  0.83337060  0.66669537
   0.00004367  0.83328518  0.00004367
   0.00018766  0.83314559  0.33334387
   0.00011000  0.16677155  0.66660988
   0.99992313  0.16668958  0.99992313
   0.99973616  0.16661414  0.33329380
   0.33506793  0.50110410  0.66545425
   0.33341766  0.49997095  0.99992137
   0.33342018  0.49573866  0.33342018
   0.33346041  0.83339595  0.66672641
   0.33334387  0.83314559  0.00018766
   0.33372593  0.83281012  0.33372593
   0.33357419  0.16763243  0.66574983
   0.33329380  0.16661414  0.99973616
   0.33287470  0.16592431  0.33287470
   0.59001212  0.41239936  0.59001212
   0.58331435  0.41678221  0.91664530
   0.58172009  0.41749122  0.25162978
   0.58337408  0.74978355  0.58337408
   0.58337441  0.75007743  0.91682251
   0.58312691  0.75044162  0.24963229
   0.58329934  0.08354775  0.58329934
   0.58326012  0.08328732  0.91683175
   0.58311785  0.08345824  0.25005992
   0.91664530  0.41678221  0.58331435
   0.91689400  0.41678381  0.91689400
   0.91646936  0.41670709  0.25008636
   0.91682251  0.75007743  0.58337441
   0.91669967  0.75000148  0.91669967
   0.91677308  0.74992420  0.25009036
   0.91683175  0.08328732  0.58326012
   0.91664030  0.08339044  0.91664030
   0.91645356  0.08338551  0.25004872
   0.25162978  0.41749122  0.58172009
   0.25008636  0.41670709  0.91646936
   0.24866429  0.41623003  0.24866429
   0.24963229  0.75044162  0.58312691
   0.25009036  0.74992420  0.91677308
   0.25034907  0.74952267  0.25034907
   0.25005992  0.08345824  0.58311785
   0.25004872  0.08338551  0.91645356
   0.24979706  0.08291171  0.24979706
   0.66660469  0.66660469  0.49946070
   0.66656572  0.66656572  0.83325676
   0.66666224  0.66666224  0.16680796
   0.66655352  0.00015841  0.50003323
   0.66669537  0.00008829  0.83337060
   0.66660988  0.00011000  0.16677155
   0.66545425  0.33506793  0.50110410
   0.66672641  0.33346041  0.83339595
   0.66574983  0.33357419  0.16763243
   0.00015841  0.66655352  0.50003323
   0.00008829  0.66669537  0.83337060
   0.00011000  0.66660988  0.16677155
   0.00001551  0.00001551  0.49996541
   0.00004367  0.00004367  0.83328518
   0.99992313  0.99992313  0.16668958
   0.99992137  0.33341766  0.49997095
   0.00018766  0.33334387  0.83314559
   0.99973616  0.33329380  0.16661414
   0.33506793  0.66545425  0.50110410
   0.33346041  0.66672641  0.83339595
   0.33357419  0.66574983  0.16763243
   0.33341766  0.99992137  0.49997095
   0.33334387  0.00018766  0.83314559
   0.33329380  0.99973616  0.16661414
   0.33342018  0.33342018  0.49573866
   0.33372593  0.33372593  0.83281012
   0.33287470  0.33287470  0.16592431
   0.59001212  0.59001212  0.41239936
   0.58337408  0.58337408  0.74978355
   0.58329934  0.58329934  0.08354775
   0.58331435  0.91664530  0.41678221
   0.58337441  0.91682251  0.75007743
   0.58326012  0.91683175  0.08328732
   0.58172009  0.25162978  0.41749122
   0.58312691  0.24963229  0.75044162
   0.58311785  0.25005992  0.08345824
   0.91664530  0.58331435  0.41678221
   0.91682251  0.58337441  0.75007743
   0.91683175  0.58326012  0.08328732
   0.91689400  0.91689400  0.41678381
   0.91669967  0.91669967  0.75000148
   0.91664030  0.91664030  0.08339044
   0.91646936  0.25008636  0.41670709
   0.91677308  0.25009036  0.74992420
   0.91645356  0.25004872  0.08338551
   0.25162978  0.58172009  0.41749122
   0.24963229  0.58312691  0.75044162
   0.25005992  0.58311785  0.08345824
   0.25008636  0.91646936  0.41670709
   0.25009036  0.91677308  0.74992420
   0.25004872  0.91645356  0.08338551
   0.24866429  0.24866429  0.41623003
   0.25034907  0.25034907  0.74952267
   0.24979706  0.24979706  0.08291171
 
 position of ions in cartesian coordinates  (Angst):
   4.40297644  4.40297644  4.40297644
   4.45125870  6.36508236  6.36508236
   5.39796317  5.39796317  8.98453309
   5.39231135  5.39231135  1.80593459
   5.39796317  8.98453309  5.39796317
   5.39733668  8.99523298  8.99523298
   5.39600344  8.98790476  1.80177813
   5.39231135  1.80593459  5.39231135
   5.39600344  1.80177813  8.98790476
   5.38864691  1.79411846  1.79411846
   8.98453309  5.39796317  5.39796317
   8.99523298  5.39733668  8.99523298
   8.98790476  5.39600344  1.80177813
   8.99523298  8.99523298  5.39733668
   8.99126783  8.99126783  8.99126783
   8.98779432  8.98779432  1.80597960
   8.98790476  1.80177813  5.39600344
   8.98779432  1.80597960  8.98779432
   8.98190865  1.80284849  1.80284849
   1.80593459  5.39231135  5.39231135
   1.80177813  5.39600344  8.98790476
   1.79411846  5.38864691  1.79411846
   1.80177813  8.98790476  5.39600344
   1.80597960  8.98779432  8.98779432
   1.80284849  8.98190865  1.80284849
   1.79411846  1.79411846  5.38864691
   1.80284849  1.80284849  8.98190865
   1.79649867  1.79649867  1.79649867
   4.50259617  4.50259617  8.08124982
   4.49317850  4.49317850  0.90156008
   4.50259617  8.08124982  4.50259617
   4.50397792  8.10121252  8.10121252
   4.49706436  8.08348799  0.90827825
   4.49317850  0.90156008  4.49317850
   4.49706436  0.90827825  8.08348799
   4.49219185  0.89784958  0.89784958
   8.08124982  4.50259617  4.50259617
   8.10121252  4.50397792  8.10121252
   8.08348799  4.49706436  0.90827825
   8.10121252  8.10121252  4.50397792
   8.09209825  8.09209825  8.09209825
   8.08909776  8.08909776  0.90648494
   8.08348799  0.90827825  4.49706436
   8.08909776  0.90648494  8.08909776
   8.08457778  0.90337431  0.90337431
   0.90156008  4.49317850  4.49317850
   0.90827825  4.49706436  8.08348799
   0.89784958  4.49219185  0.89784958
   0.90827825  8.08348799  4.49706436
   0.90648494  8.08909776  8.08909776
   0.90337431  8.08457778  0.90337431
   0.89784958  0.89784958  4.49219185
   0.90337431  0.90337431  8.08457778
   0.89833073  0.89833073  0.89833073
   5.39050615  7.19152596  7.19152596
   5.39351862  7.18781793  0.00723762
   5.40664494  7.17756043  3.61756207
   5.39351862  0.00723762  7.18781793
   5.38962732  0.00253727  0.00253727
   5.39600726 10.78310289  3.60135226
   5.40664494  3.61756207  7.17756043
   5.39600726  3.60135226 10.78310289
   5.34722370  3.59819999  3.59819999
   8.98882723  7.19268804  7.19268804
   8.98689577  7.19092690  0.00806242
   8.98874945  7.19284194  3.60181418
   8.98689577  0.00806242  7.19092690
   8.98281462  0.00442099  0.00442099
   8.98289046  0.00755248  3.59739710
   8.98874945  3.60181418  7.19284194
   8.98289046  3.59739710  0.00755248
   8.98085703  3.60309519  3.60309519
   1.80451008  7.19056980  7.19056980
   1.80095769  7.18684552  0.00513621
   1.81181466  7.17915904  3.59988024
   1.80095769  0.00513621  7.18684552
   1.80639349 10.78470135 10.78470135
   1.80241931 10.77952545  3.59843598
   1.81181466  3.59988024  7.17915904
   1.80241931  3.59843598 10.77952545
   1.79181985  3.59075365  3.59075365
   4.50002243  6.29444951  9.88617701
   4.50450567  6.27411437  2.71730559
   4.50002243  9.88617701  6.29444951
   4.50162213  9.89043929  9.89043929
   4.49763214  9.88270047  2.70225059
   4.50450567  2.71730559  6.27411437
   4.49763214  2.70225059  9.88270047
   4.48931723  2.68375285  2.68375285
   8.08819734  6.29509204  6.29509204
   8.09294604  6.29667770  9.88966752
   8.09370814  6.29084874  2.69735750
   8.09294604  9.88966752  6.29667770
   8.09370678  9.88992306  9.88992306
   8.08971406  9.88755415  2.70387461
   8.09370814  2.69735750  6.29084874
   8.08971406  2.70387461  9.88755415
   8.08222785  2.70350257  2.70350257
   0.90617468  6.29112786  6.29112786
   0.90494812  6.29228490  9.88660592
   0.90362932  6.28759139  2.69880570
   0.90494812  9.88660592  6.29228490
   0.90763916  9.88612283  9.88612283
   0.90442533  9.88094997  2.70026465
   0.90362932  2.69880570  6.28759139
   0.90442533  2.70026465  9.88094997
   0.89615647  2.69438942  2.69438942
   7.19152596  5.39050615  7.19152596
   7.18781793  5.39351862  0.00723762
   7.17756043  5.40664494  3.61756207
   7.19268804  8.98882723  7.19268804
   7.19092690  8.98689577  0.00806242
   7.19284194  8.98874945  3.60181418
   7.19056980  1.80451008  7.19056980
   7.18684552  1.80095769  0.00513621
   7.17915904  1.81181466  3.59988024
   0.00723762  5.39351862  7.18781793
   0.00253727  5.38962732  0.00253727
  10.78310289  5.39600726  3.60135226
   0.00806242  8.98689577  7.19092690
   0.00442099  8.98281462  0.00442099
   0.00755248  8.98289046  3.59739710
   0.00513621  1.80095769  7.18684552
  10.78470135  1.80639349 10.78470135
  10.77952545  1.80241931  3.59843598
   3.61756207  5.40664494  7.17756043
   3.60135226  5.39600726 10.78310289
   3.59819999  5.34722370  3.59819999
   3.60181418  8.98874945  7.19284194
   3.59739710  8.98289046  0.00755248
   3.60309519  8.98085703  3.60309519
   3.59988024  1.81181466  7.17915904
   3.59843598  1.80241931 10.77952545
   3.59075365  1.79181985  3.59075365
   6.36508236  4.45125870  6.36508236
   6.29444951  4.50002243  9.88617701
   6.27411437  4.50450567  2.71730559
   6.29509204  8.08819734  6.29509204
   6.29667770  8.09294604  9.88966752
   6.29084874  8.09370814  2.69735750
   6.29112786  0.90617468  6.29112786
   6.29228490  0.90494812  9.88660592
   6.28759139  0.90362932  2.69880570
   9.88617701  4.50002243  6.29444951
   9.89043929  4.50162213  9.89043929
   9.88270047  4.49763214  2.70225059
   9.88966752  8.09294604  6.29667770
   9.88992306  8.09370678  9.88992306
   9.88755415  8.08971406  2.70387461
   9.88660592  0.90494812  6.29228490
   9.88612283  0.90763916  9.88612283
   9.88094997  0.90442533  2.70026465
   2.71730559  4.50450567  6.27411437
   2.70225059  4.49763214  9.88270047
   2.68375285  4.48931723  2.68375285
   2.69735750  8.09370814  6.29084874
   2.70387461  8.08971406  9.88755415
   2.70350257  8.08222785  2.70350257
   2.69880570  0.90362932  6.28759139
   2.70026465  0.90442533  9.88094997
   2.69438942  0.89615647  2.69438942
   7.19152596  7.19152596  5.39050615
   7.19268804  7.19268804  8.98882723
   7.19056980  7.19056980  1.80451008
   7.18781793  0.00723762  5.39351862
   7.19092690  0.00806242  8.98689577
   7.18684552  0.00513621  1.80095769
   7.17756043  3.61756207  5.40664494
   7.19284194  3.60181418  8.98874945
   7.17915904  3.59988024  1.81181466
   0.00723762  7.18781793  5.39351862
   0.00806242  7.19092690  8.98689577
   0.00513621  7.18684552  1.80095769
   0.00253727  0.00253727  5.38962732
   0.00442099  0.00442099  8.98281462
  10.78470135 10.78470135  1.80639349
  10.78310289  3.60135226  5.39600726
   0.00755248  3.59739710  8.98289046
  10.77952545  3.59843598  1.80241931
   3.61756207  7.17756043  5.40664494
   3.60181418  7.19284194  8.98874945
   3.59988024  7.17915904  1.81181466
   3.60135226 10.78310289  5.39600726
   3.59739710  0.00755248  8.98289046
   3.59843598 10.77952545  1.80241931
   3.59819999  3.59819999  5.34722370
   3.60309519  3.60309519  8.98085703
   3.59075365  3.59075365  1.79181985
   6.36508236  6.36508236  4.45125870
   6.29509204  6.29509204  8.08819734
   6.29112786  6.29112786  0.90617468
   6.29444951  9.88617701  4.50002243
   6.29667770  9.88966752  8.09294604
   6.29228490  9.88660592  0.90494812
   6.27411437  2.71730559  4.50450567
   6.29084874  2.69735750  8.09370814
   6.28759139  2.69880570  0.90362932
   9.88617701  6.29444951  4.50002243
   9.88966752  6.29667770  8.09294604
   9.88660592  6.29228490  0.90494812
   9.89043929  9.89043929  4.50162213
   9.88992306  9.88992306  8.09370678
   9.88612283  9.88612283  0.90763916
   9.88270047  2.70225059  4.49763214
   9.88755415  2.70387461  8.08971406
   9.88094997  2.70026465  0.90442533
   2.71730559  6.27411437  4.50450567
   2.69735750  6.29084874  8.09370814
   2.69880570  6.28759139  0.90362932
   2.70225059  9.88270047  4.49763214
   2.70387461  9.88755415  8.08971406
   2.70026465  9.88094997  0.90442533
   2.68375285  2.68375285  4.48931723
   2.70350257  2.70350257  8.08222785
   2.69438942  2.69438942  0.89615647
 


--------------------------------------------------------------------------------------------------------


 use parallel FFT for orbitals z direction half grid
 k-point  1 :   0.0000 0.0000 0.0000  plane waves:   16842

 maximum and minimum number of plane-waves per node :      4211     4210

 maximum number of plane-waves:     16842
 maximum index in each direction: 
   IXMAX=   20   IYMAX=   20   IZMAX=   20
   IXMIN=  -20   IYMIN=  -20   IZMIN=    0


 real space projection operators:
  total allocation   :      10677.00 KBytes
  max/ min on nodes  :       2671.44       2667.44


 parallel 3D FFT for wavefunctions:
    minimum data exchange during FFTs selected (reduces bandwidth)
 parallel 3D FFT for charge:
    minimum data exchange during FFTs selected (reduces bandwidth)


 total amount of memory used by VASP MPI-rank0    58252. kBytes
=======================================================================

   base      :      30000. kBytes
   nonlr-proj:       3282. kBytes
   fftplans  :       3561. kBytes
   grid      :      10185. kBytes
   one-center:        165. kBytes
   wavefun   :      11059. kBytes
 
     INWAV:  cpu time    0.8633: real time    2.9058
 Broyden mixing: mesh for mixing (old mesh)
   NGX = 41   NGY = 41   NGZ = 41
  (NGX  =120   NGY  =120   NGZ  =120)
  gives a total of  68921 points

 charge density for first step will be calculated from the start-wavefunctions


--------------------------------------------------------------------------------------------------------


 Maximum index for non-local projection operator          348
 Maximum index for augmentation-charges          185 (set IRDMAX)


--------------------------------------------------------------------------------------------------------


 initial charge from wavefunction
 First call to EWALD:  gamma=   0.164
 Maximum number of real-space cells 3x 3x 3
 Maximum number of reciprocal cells 3x 3x 3

    FEWALD:  cpu time    0.0124: real time    0.0124


--------------------------------------- Iteration      1(   1)  ---------------------------------------


    POTLOK:  cpu time    0.0867: real time    0.1298
    SETDIJ:  cpu time    2.9208: real time    2.9217
     EDDAV:  cpu time    4.0074: real time    4.0079
       DOS:  cpu time    0.0006: real time    0.0006
    CHARGE:  cpu time    0.1279: real time    0.1279
    MIXING:  cpu time    0.0028: real time    0.0029
    --------------------------------------------
      LOOP:  cpu time    7.1462: real time    7.1909

 eigenvalue-minimisations  :  2688
 total energy-change (2. order) :-0.2048354E+04  (-0.5657772E-06)
 number of electron     861.9998543 magnetization       1.9999999
 augmentation part       20.2687623 magnetization       0.1069676

 Broyden mixing:
  rms(total) = 0.27993E-03    rms(broyden)= 0.27990E-03
  rms(prec ) = 0.35621E-03
  weight for this iteration     100.00

 Free energy of the ion-electron system (eV)
  ---------------------------------------------------
  alpha Z        PSCENC =      3035.39611998
  Ewald energy   TEWEN  =    -37049.88944389
  -Hartree energ DENC   =     -2946.85276225
  -exchange      EXHF   =         0.00000000
  -V(xc)+E(xc)   XCENC  =      3041.84852566
  PAW double counting   =     79639.57623842   -79722.25265855
  entropy T*S    EENTRO =        -0.00000000
  eigenvalues    EBANDS =       399.13056767
  atomic energy  EATOM  =     31554.68925566
  Solvation  Ediel_sol  =         0.00000000
  ---------------------------------------------------
  free energy    TOTEN  =     -2048.35415730 eV

  energy without entropy =    -2048.35415730  energy(sigma->0) =    -2048.35415730


--------------------------------------------------------------------------------------------------------




--------------------------------------- Iteration      1(   2)  ---------------------------------------


    POTLOK:  cpu time    0.1164: real time    0.1186
    SETDIJ:  cpu time    2.9237: real time    2.9237
     EDDAV:  cpu time    3.7216: real time    3.7201
       DOS:  cpu time    0.0005: real time    0.0005
    CHARGE:  cpu time    0.1264: real time    0.1264
    MIXING:  cpu time    0.0028: real time    0.0028
    --------------------------------------------
      LOOP:  cpu time    6.8913: real time    6.8920

 eigenvalue-minimisations  :  2492
 total energy-change (2. order) : 0.1571680E-06  (-0.5865424E-07)
 number of electron     861.9998543 magnetization       1.9999999
 augmentation part       20.2687618 magnetization       0.1069675

 Broyden mixing:
  rms(total) = 0.15956E-03    rms(broyden)= 0.15955E-03
  rms(prec ) = 0.19611E-03
  weight for this iteration     100.00

 eigenvalues of (default mixing * dielectric matrix)
  average eigenvalue GAMMA=   1.6757
  1.6757

 Free energy of the ion-electron system (eV)
  ---------------------------------------------------
  alpha Z        PSCENC =      3035.39611998
  Ewald energy   TEWEN  =    -37049.88944389
  -Hartree energ DENC   =     -2946.85237733
  -exchange      EXHF   =         0.00000000
  -V(xc)+E(xc)   XCENC  =      3041.84851407
  PAW double counting   =     79639.57135385   -79722.24777635
  entropy T*S    EENTRO =        -0.00000000
  eigenvalues    EBANDS =       399.13019687
  atomic energy  EATOM  =     31554.68925566
  Solvation  Ediel_sol  =         0.00000000
  ---------------------------------------------------
  free energy    TOTEN  =     -2048.35415714 eV

  energy without entropy =    -2048.35415714  energy(sigma->0) =    -2048.35415714


--------------------------------------------------------------------------------------------------------




--------------------------------------- Iteration      1(   3)  ---------------------------------------


    POTLOK:  cpu time    0.0834: real time    0.0834
    SETDIJ:  cpu time    2.9307: real time    2.9322
     EDDAV:  cpu time    3.6875: real time    3.6870
       DOS:  cpu time    0.0004: real time    0.0004
    CHARGE:  cpu time    0.1270: real time    0.1270
    MIXING:  cpu time    0.0029: real time    0.0029
    --------------------------------------------
      LOOP:  cpu time    6.8319: real time    6.8328

 eigenvalue-minimisations  :  2464
 total energy-change (2. order) : 0.4644244E-07  (-0.3544022E-07)
 number of electron     861.9998543 magnetization       1.9999999
 augmentation part       20.2687614 magnetization       0.1069676

 Broyden mixing:
  rms(total) = 0.52868E-04    rms(broyden)= 0.52861E-04
  rms(prec ) = 0.63174E-04
  weight for this iteration     100.00

 eigenvalues of (default mixing * dielectric matrix)
  average eigenvalue GAMMA=   1.4321
  0.8220  2.0421

 Free energy of the ion-electron system (eV)
  ---------------------------------------------------
  alpha Z        PSCENC =      3035.39611998
  Ewald energy   TEWEN  =    -37049.88944389
  -Hartree energ DENC   =     -2946.85205713
  -exchange      EXHF   =         0.00000000
  -V(xc)+E(xc)   XCENC  =      3041.84850642
  PAW double counting   =     79639.56569256   -79722.24211354
  entropy T*S    EENTRO =        -0.00000000
  eigenvalues    EBANDS =       399.12988285
  atomic energy  EATOM  =     31554.68925566
  Solvation  Ediel_sol  =         0.00000000
  ---------------------------------------------------
  free energy    TOTEN  =     -2048.35415710 eV

  energy without entropy =    -2048.35415710  energy(sigma->0) =    -2048.35415710


--------------------------------------------------------------------------------------------------------




--------------------------------------- Iteration      1(   4)  ---------------------------------------


    POTLOK:  cpu time    0.0841: real time    0.0843
    SETDIJ:  cpu time    2.9509: real time    2.9509
     EDDAV:  cpu time    3.8752: real time    3.8740
       DOS:  cpu time    0.0007: real time    0.0007
    CHARGE:  cpu time    0.1302: real time    0.1302
    MIXING:  cpu time    0.0048: real time    0.0048
    --------------------------------------------
      LOOP:  cpu time    7.0460: real time    7.0450

 eigenvalue-minimisations  :  2618
 total energy-change (2. order) :-0.3310561E-08  (-0.8237519E-08)
 number of electron     861.9998543 magnetization       1.9999999
 augmentation part       20.2687614 magnetization       0.1069675

 Broyden mixing:
  rms(total) = 0.44777E-04    rms(broyden)= 0.44774E-04
  rms(prec ) = 0.49526E-04
  weight for this iteration     100.00

 eigenvalues of (default mixing * dielectric matrix)
  average eigenvalue GAMMA=   1.2334
  2.2016  0.7494  0.7494

 Free energy of the ion-electron system (eV)
  ---------------------------------------------------
  alpha Z        PSCENC =      3035.39611998
  Ewald energy   TEWEN  =    -37049.88944389
  -Hartree energ DENC   =     -2946.85202309
  -exchange      EXHF   =         0.00000000
  -V(xc)+E(xc)   XCENC  =      3041.84850512
  PAW double counting   =     79639.56493185   -79722.24135275
  entropy T*S    EENTRO =        -0.00000000
  eigenvalues    EBANDS =       399.12985002
  atomic energy  EATOM  =     31554.68925566
  Solvation  Ediel_sol  =         0.00000000
  ---------------------------------------------------
  free energy    TOTEN  =     -2048.35415710 eV

  energy without entropy =    -2048.35415710  energy(sigma->0) =    -2048.35415710


--------------------------------------------------------------------------------------------------------




--------------------------------------- Iteration      1(   5)  ---------------------------------------


    POTLOK:  cpu time    0.0943: real time    0.0952
    SETDIJ:  cpu time    2.9175: real time    2.9175
     EDDAV:  cpu time    2.6255: real time    2.6251
       DOS:  cpu time    0.0004: real time    0.0004
    --------------------------------------------
      LOOP:  cpu time    5.6376: real time    5.6382

 eigenvalue-minimisations  :  1512
 total energy-change (2. order) : 0.1200533E-08  (-0.6643999E-09)
 number of electron     861.9998543 magnetization       1.9999999
 augmentation part       20.2687614 magnetization       0.1069675

 Free energy of the ion-electron system (eV)
  ---------------------------------------------------
  alpha Z        PSCENC =      3035.39611998
  Ewald energy   TEWEN  =    -37049.88944389
  -Hartree energ DENC   =     -2946.85197272
  -exchange      EXHF   =         0.00000000
  -V(xc)+E(xc)   XCENC  =      3041.84850294
  PAW double counting   =     79639.56279185   -79722.23921333
  entropy T*S    EENTRO =        -0.00000000
  eigenvalues    EBANDS =       399.12980241
  atomic energy  EATOM  =     31554.68925566
  Solvation  Ediel_sol  =         0.00000000
  ---------------------------------------------------
  free energy    TOTEN  =     -2048.35415710 eV

  energy without entropy =    -2048.35415710  energy(sigma->0) =    -2048.35415710


--------------------------------------------------------------------------------------------------------




 average (electrostatic) potential at core
  the test charge radii are     0.7089  0.6991
  (the norm of the test charge is              1.0000)
       1 -59.5613       2 -44.1738       3 -45.7531       4 -45.8585       5 -45.7531
       6 -45.8581       7 -45.8906       8 -45.8585       9 -45.8906      10 -45.9435
      11 -45.7531      12 -45.8581      13 -45.8906      14 -45.8581      15 -45.9682
      16 -45.9849      17 -45.8906      18 -45.9849      19 -46.0066      20 -45.8585
      21 -45.8906      22 -45.9435      23 -45.8906      24 -45.9849      25 -46.0066
      26 -45.9435      27 -46.0066      28 -46.0161      29 -45.6282      30 -45.9236
      31 -45.6282      32 -45.7050      33 -45.9560      34 -45.9236      35 -45.9560
      36 -45.9782      37 -45.6282      38 -45.7050      39 -45.9560      40 -45.7050
      41 -45.8734      42 -45.9496      43 -45.9560      44 -45.9496      45 -46.0080
      46 -45.9236      47 -45.9560      48 -45.9782      49 -45.9560      50 -45.9496
      51 -46.0080      52 -45.9782      53 -46.0080      54 -46.0382      55 -45.3921
      56 -45.9146      57 -45.5050      58 -45.9146      59 -45.9597      60 -45.9341
      61 -45.5050      62 -45.9341      63 -46.3544      64 -45.8291      65 -45.9606
      66 -45.8385      67 -45.9606      68 -46.0250      69 -45.9848      70 -45.8385
      71 -45.9848      72 -45.8740      73 -45.8473      74 -45.9843      75 -45.9550
      76 -45.9843      77 -46.0357      78 -45.9894      79 -45.9550      80 -45.9894
      81 -45.9349      82 -45.8668      83 -45.8103      84 -45.8668      85 -45.9574
      86 -45.9379      87 -45.8103      88 -45.9379      89 -45.8252      90 -45.5830
      91 -45.9091      92 -45.7452      93 -45.9091      94 -45.9896      95 -45.9563
      96 -45.7452      97 -45.9563      98 -45.9403      99 -45.8923     100 -45.9603
     101 -45.9651     102 -45.9603     103 -46.0270     104 -46.0113     105 -45.9651
     106 -46.0113     107 -45.9856     108 -45.3921     109 -45.9146     110 -45.5050
     111 -45.8291     112 -45.9606     113 -45.8385     114 -45.8473     115 -45.9843
     116 -45.9550     117 -45.9146     118 -45.9597     119 -45.9341     120 -45.9606
     121 -46.0250     122 -45.9848     123 -45.9843     124 -46.0357     125 -45.9894
     126 -45.5050     127 -45.9341     128 -46.3544     129 -45.8385     130 -45.9848
     131 -45.8740     132 -45.9550     133 -45.9894     134 -45.9349     135 -44.1738
     136 -45.8668     137 -45.8103     138 -45.5830     139 -45.9091     140 -45.7452
     141 -45.8923     142 -45.9603     143 -45.9651     144 -45.8668     145 -45.9574
     146 -45.9379     147 -45.9091     148 -45.9896     149 -45.9563     150 -45.9603
     151 -46.0270     152 -46.0113     153 -45.8103     154 -45.9379     155 -45.8252
     156 -45.7452     157 -45.9563     158 -45.9403     159 -45.9651     160 -46.0113
     161 -45.9856     162 -45.3921     163 -45.8291     164 -45.8473     165 -45.9146
     166 -45.9606     167 -45.9843     168 -45.5050     169 -45.8385     170 -45.9550
     171 -45.9146     172 -45.9606     173 -45.9843     174 -45.9597     175 -46.0250
     176 -46.0357     177 -45.9341     178 -45.9848     179 -45.9894     180 -45.5050
     181 -45.8385     182 -45.9550     183 -45.9341     184 -45.9848     185 -45.9894
     186 -46.3544     187 -45.8740     188 -45.9349     189 -44.1738     190 -45.5830
     191 -45.8923     192 -45.8668     193 -45.9091     194 -45.9603     195 -45.8103
     196 -45.7452     197 -45.9651     198 -45.8668     199 -45.9091     200 -45.9603
     201 -45.9574     202 -45.9896     203 -46.0270     204 -45.9379     205 -45.9563
     206 -46.0113     207 -45.8103     208 -45.7452     209 -45.9651     210 -45.9379
     211 -45.9563     212 -46.0113     213 -45.8252     214 -45.9403     215 -45.9856
 
 
 
 E-fermi :  10.6559     XC(G=0): -13.3005     alpha+bet :-17.1943


 spin component 1

 k-point     1 :       0.0000    0.0000    0.0000
  band No.  band energies     occupation 
      1     -11.9640      1.00000
      2     -11.1621      1.00000
      3     -10.9637      1.00000
      4     -10.9637      1.00000
      5     -10.9213      1.00000
      6     -10.9213      1.00000
      7     -10.8395      1.00000
      8     -10.3303      1.00000
      9      -9.9731      1.00000
     10      -9.9731      1.00000
     11      -9.9646      1.00000
     12      -9.9646      1.00000
     13      -9.9495      1.00000
     14      -9.9274      1.00000
     15      -9.9274      1.00000
     16      -9.9157      1.00000
     17      -9.8727      1.00000
     18      -9.8727      1.00000
     19      -9.7049      1.00000
     20      -9.2190      1.00000
     21      -8.9598      1.00000
     22      -8.9505      1.00000
     23      -8.9505      1.00000
     24      -8.9331      1.00000
     25      -8.9264      1.00000
     26      -8.9264      1.00000
     27      -8.7709      1.00000
     28      -8.1714      1.00000
     29      -7.9759      1.00000
     30      -7.9759      1.00000
     31      -7.9544      1.00000
     32      -7.9544      1.00000
     33      -7.8970      1.00000
     34      -7.5862      1.00000
     35      -7.0944      1.00000
     36      -7.0944      1.00000
     37      -7.0858      1.00000
     38      -7.0848      1.00000
     39      -7.0848      1.00000
     40      -7.0739      1.00000
     41      -7.0729      1.00000
     42      -7.0729      1.00000
     43      -7.0575      1.00000
     44      -7.0544      1.00000
     45      -7.0544      1.00000
     46      -7.0471      1.00000
     47      -7.0471      1.00000
     48      -7.0446      1.00000
     49      -7.0198      1.00000
     50      -7.0198      1.00000
     51      -7.0060      1.00000
     52      -7.0056      1.00000
     53      -7.0056      1.00000
     54      -6.9797      1.00000
     55      -6.9195      1.00000
     56      -6.9195      1.00000
     57      -6.7447      1.00000
     58      -6.5505      1.00000
     59      -6.3270      1.00000
     60      -6.3270      1.00000
     61      -6.3005      1.00000
     62      -6.3005      1.00000
     63      -6.2968      1.00000
     64      -6.2844      1.00000
     65      -6.2844      1.00000
     66      -6.2799      1.00000
     67      -6.2799      1.00000
     68      -6.2711      1.00000
     69      -6.2711      1.00000
     70      -6.2454      1.00000
     71      -6.2393      1.00000
     72      -6.2393      1.00000
     73      -6.2232      1.00000
     74      -6.2232      1.00000
     75      -6.1948      1.00000
     76      -6.1933      1.00000
     77      -6.1933      1.00000
     78      -6.1584      1.00000
     79      -6.0513      1.00000
     80      -6.0513      1.00000
     81      -5.3841      1.00000
     82      -4.7981      1.00000
     83      -4.6334      1.00000
     84      -4.6334      1.00000
     85      -4.6081      1.00000
     86      -4.6081      1.00000
     87      -4.5993      1.00000
     88      -4.5943      1.00000
     89      -4.5943      1.00000
     90      -4.5709      1.00000
     91      -4.5349      1.00000
     92      -4.5349      1.00000
     93      -4.1955      1.00000
     94      -3.3996      1.00000
     95      -3.3478      1.00000
     96      -3.3478      1.00000
     97      -3.3323      1.00000
     98      -3.3323      1.00000
     99      -3.2930      1.00000
    100      -3.0683      1.00000
    101      -2.9005      1.00000
    102      -2.9005      1.00000
    103      -2.8554      1.00000
    104      -2.8485      1.00000
    105      -2.8485      1.00000
    106      -2.8395      1.00000
    107      -2.8395      1.00000
    108      -2.8353      1.00000
    109      -2.8336      1.00000
    110      -2.8226      1.00000
    111      -2.8226      1.00000
    112      -2.8077      1.00000
    113      -2.8077      1.00000
    114      -2.7919      1.00000
    115      -2.7611      1.00000
    116      -2.7467      1.00000
    117      -2.7467      1.00000
    118      -2.7138      1.00000
    119      -2.7138      1.00000
    120      -2.7132      1.00000
    121      -2.7028      1.00000
    122      -2.7028      1.00000
    123      -2.6706      1.00000
    124      -2.6479      1.00000
    125      -2.6479      1.00000
    126      -2.6386      1.00000
    127      -2.6292      1.00000
    128      -2.6290      1.00000
    129      -2.6290      1.00000
    130      -2.6176      1.00000
    131      -2.6166      1.00000
    132      -2.6166      1.00000
    133      -2.6090      1.00000
    134      -2.5963      1.00000
    135      -2.5963      1.00000
    136      -2.5728      1.00000
    137      -2.5728      1.00000
    138      -2.5680      1.00000
    139      -2.5647      1.00000
    140      -2.5647      1.00000
    141      -2.5581      1.00000
    142      -2.5581      1.00000
    143      -2.5506      1.00000
    144      -2.3327      1.00000
    145      -2.2162      1.00000
    146      -2.2162      1.00000
    147      -1.8249      1.00000
    148      -1.5725      1.00000
    149      -1.5725      1.00000
    150      -1.5658      1.00000
    151      -1.5215      1.00000
    152      -1.5208      1.00000
    153      -1.5208      1.00000
    154      -1.5201      1.00000
    155      -1.4916      1.00000
    156      -1.4916      1.00000
    157      -1.3707      1.00000
    158      -1.3707      1.00000
    159      -0.4167      1.00000
    160      -0.0774      1.00000
    161      -0.0774      1.00000
    162      -0.0551      1.00000
    163      -0.0031      1.00000
    164       0.0010      1.00000
    165       0.0079      1.00000
    166       0.0079      1.00000
    167       0.0122      1.00000
    168       0.0131      1.00000
    169       0.0131      1.00000
    170       0.0183      1.00000
    171       0.0305      1.00000
    172       0.0328      1.00000
    173       0.0328      1.00000
    174       0.0529      1.00000
    175       0.0529      1.00000
    176       0.1761      1.00000
    177       0.1761      1.00000
    178       0.1772      1.00000
    179       0.2117      1.00000
    180       0.5644      1.00000
    181       0.5644      1.00000
    182       0.5967      1.00000
    183       0.6680      1.00000
    184       0.6733      1.00000
    185       0.6733      1.00000
    186       0.6743      1.00000
    187       0.6824      1.00000
    188       0.6824      1.00000
    189       0.6884      1.00000
    190       0.6884      1.00000
    191       0.6923      1.00000
    192       0.7014      1.00000
    193       0.7027      1.00000
    194       0.7027      1.00000
    195       0.7106      1.00000
    196       0.7106      1.00000
    197       0.7265      1.00000
    198       0.7284      1.00000
    199       0.7284      1.00000
    200       0.7320      1.00000
    201       0.9298      1.00000
    202       0.9298      1.00000
    203       1.4478      1.00000
    204       1.4478      1.00000
    205       1.4653      1.00000
    206       1.5171      1.00000
    207       1.5171      1.00000
    208       1.5190      1.00000
    209       1.5191      1.00000
    210       1.5280      1.00000
    211       1.5280      1.00000
    212       1.5376      1.00000
    213       1.5376      1.00000
    214       1.5471      1.00000
    215       1.5589      1.00000
    216       1.5589      1.00000
    217       1.6099      1.00000
    218       1.6099      1.00000
    219       1.6099      1.00000
    220       1.6239      1.00000
    221       1.6302      1.00000
    222       1.6640      1.00000
    223       1.6640      1.00000
    224       1.7254      1.00000
    225       1.7427      1.00000
    226       1.7427      1.00000
    227       1.8100      1.00000
    228       1.9371      1.00000
    229       1.9371      1.00000
    230       2.0241      1.00000
    231       2.0384      1.00000
    232       2.0384      1.00000
    233       2.0468      1.00000
    234       2.0505      1.00000
    235       2.0505      1.00000
    236       2.0565      1.00000
    237       2.0565      1.00000
    238       2.0568      1.00000
    239       2.0671      1.00000
    240       2.0769      1.00000
    241       2.0837      1.00000
    242       2.0837      1.00000
    243       2.1007      1.00000
    244       2.1007      1.00000
    245       2.1040      1.00000
    246       2.1173      1.00000
    247       2.1310      1.00000
    248       2.1310      1.00000
    249       2.1399      1.00000
    250       2.1648      1.00000
    251       2.1648      1.00000
    252       2.2077      1.00000
    253       2.2077      1.00000
    254       2.4928      1.00000
    255       2.5388      1.00000
    256       2.5388      1.00000
    257       3.0544      1.00000
    258       3.0544      1.00000
    259       3.1224      1.00000
    260       3.1229      1.00000
    261       3.1368      1.00000
    262       3.1368      1.00000
    263       3.2362      1.00000
    264       3.5585      1.00000
    265       3.5585      1.00000
    266       3.6375      1.00000
    267       3.6442      1.00000
    268       3.6442      1.00000
    269       3.6572      1.00000
    270       3.6581      1.00000
    271       3.6581      1.00000
    272       3.6882      1.00000
    273       3.7420      1.00000
    274       3.7420      1.00000
    275       3.9124      1.00000
    276       3.9124      1.00000
    277       4.0227      1.00000
    278       4.0483      1.00000
    279       4.0545      1.00000
    280       4.0545      1.00000
    281       4.0657      1.00000
    282       4.0657      1.00000
    283       4.0688      1.00000
    284       4.1035      1.00000
    285       4.1190      1.00000
    286       4.1216      1.00000
    287       4.1216      1.00000
    288       4.2538      1.00000
    289       4.2538      1.00000
    290       4.2809      1.00000
    291       4.2990      1.00000
    292       4.3027      1.00000
    293       4.3027      1.00000
    294       4.3215      1.00000
    295       4.3215      1.00000
    296       4.3223      1.00000
    297       4.3294      1.00000
    298       4.3304      1.00000
    299       4.3304      1.00000
    300       4.3337      1.00000
    301       4.3381      1.00000
    302       4.3381      1.00000
    303       4.3651      1.00000
    304       4.3651      1.00000
    305       4.3815      1.00000
    306       4.3815      1.00000
    307       4.3843      1.00000
    308       4.3903      1.00000
    309       4.3903      1.00000
    310       4.3931      1.00000
    311       4.4489      1.00000
    312       4.4489      1.00000
    313       4.4759      1.00000
    314       4.4975      1.00000
    315       4.5106      1.00000
    316       4.5106      1.00000
    317       4.5136      1.00000
    318       4.5173      1.00000
    319       4.5187      1.00000
    320       4.5187      1.00000
    321       4.5207      1.00000
    322       4.5207      1.00000
    323       4.5288      1.00000
    324       4.5309      1.00000
    325       4.5323      1.00000
    326       4.5323      1.00000
    327       4.5375      1.00000
    328       4.5375      1.00000
    329       4.5376      1.00000
    330       4.5409      1.00000
    331       4.5409      1.00000
    332       4.5533      1.00000
    333       4.5538      1.00000
    334       4.5539      1.00000
    335       4.5539      1.00000
    336       4.5671      1.00000
    337       4.5671      1.00000
    338       4.5731      1.00000
    339       4.5964      1.00000
    340       4.5964      1.00000
    341       4.6027      1.00000
    342       4.6151      1.00000
    343       4.6151      1.00000
    344       4.6339      1.00000
    345       4.6339      1.00000
    346       4.6589      1.00000
    347       4.6648      1.00000
    348       4.6648      1.00000
    349       4.6831      1.00000
    350       4.7168      1.00000
    351       4.7168      1.00000
    352       4.7291      1.00000
    353       4.7414      1.00000
    354       4.8157      1.00000
    355       4.8157      1.00000
    356       5.0888      1.00000
    357       5.1049      1.00000
    358       5.1049      1.00000
    359       5.2749      1.00000
    360       5.2749      1.00000
    361       5.3385      1.00000
    362       5.3385      1.00000
    363       5.3452      1.00000
    364       5.3527      1.00000
[...]
    4ORBIT:  cpu time    0.0000: real time    0.0000
 


 total charge     
 
# of ion       s       p       d       tot
------------------------------------------
    1        1.198   2.681   0.000   3.878
    2        0.828   1.707   0.000   2.535
    3        0.820   1.722   0.000   2.542
    4        0.820   1.726   0.000   2.546
    5        0.820   1.722   0.000   2.542
    6        0.821   1.728   0.000   2.548
    7        0.821   1.725   0.000   2.546
    8        0.820   1.726   0.000   2.546
    9        0.821   1.725   0.000   2.546
   10        0.821   1.728   0.000   2.549
   11        0.820   1.722   0.000   2.542
   12        0.821   1.728   0.000   2.548
   13        0.821   1.725   0.000   2.546
   14        0.821   1.728   0.000   2.548
   15        0.820   1.722   0.000   2.542
   16        0.820   1.722   0.000   2.541
   17        0.821   1.725   0.000   2.546
   18        0.820   1.722   0.000   2.541
   19        0.820   1.721   0.000   2.540
   20        0.820   1.726   0.000   2.546
   21        0.821   1.725   0.000   2.546
   22        0.821   1.728   0.000   2.549
   23        0.821   1.725   0.000   2.546
   24        0.820   1.722   0.000   2.541
   25        0.820   1.721   0.000   2.540
   26        0.821   1.728   0.000   2.549
   27        0.820   1.721   0.000   2.540
   28        0.820   1.722   0.000   2.542
   29        0.821   1.720   0.000   2.540
   30        0.820   1.722   0.000   2.542
   31        0.821   1.720   0.000   2.540
   32        0.822   1.719   0.000   2.542
   33        0.819   1.718   0.000   2.538
   34        0.820   1.722   0.000   2.542
   35        0.819   1.718   0.000   2.538
   36        0.820   1.725   0.000   2.545
   37        0.821   1.720   0.000   2.540
   38        0.822   1.719   0.000   2.542
   39        0.819   1.718   0.000   2.538
   40        0.822   1.719   0.000   2.542
   41        0.820   1.721   0.000   2.541
   42        0.820   1.722   0.000   2.542
   43        0.819   1.718   0.000   2.538
   44        0.820   1.722   0.000   2.542
   45        0.820   1.723   0.000   2.542
   46        0.820   1.722   0.000   2.542
   47        0.819   1.718   0.000   2.538
   48        0.820   1.725   0.000   2.545
   49        0.819   1.718   0.000   2.538
   50        0.820   1.722   0.000   2.542
   51        0.820   1.723   0.000   2.542
   52        0.820   1.725   0.000   2.545
   53        0.820   1.723   0.000   2.542
   54        0.820   1.722   0.000   2.542
   55        0.821   1.731   0.000   2.552
   56        0.820   1.722   0.000   2.542
   57        0.820   1.720   0.000   2.540
   58        0.820   1.722   0.000   2.542
   59        0.821   1.727   0.000   2.548
   60        0.820   1.722   0.000   2.542
   61        0.820   1.720   0.000   2.540
   62        0.820   1.722   0.000   2.542
   63        0.815   1.686   0.000   2.501
   64        0.820   1.721   0.000   2.540
   65        0.820   1.722   0.000   2.542
   66        0.820   1.720   0.000   2.540
   67        0.820   1.722   0.000   2.542
   68        0.820   1.721   0.000   2.541
   69        0.820   1.720   0.000   2.540
   70        0.820   1.720   0.000   2.540
   71        0.820   1.720   0.000   2.540
   72        0.819   1.720   0.000   2.539
   73        0.820   1.721   0.000   2.541
   74        0.820   1.722   0.000   2.542
   75        0.819   1.713   0.000   2.532
   76        0.820   1.722   0.000   2.542
   77        0.820   1.721   0.000   2.541
   78        0.820   1.723   0.000   2.543
   79        0.819   1.713   0.000   2.532
   80        0.820   1.723   0.000   2.543
   81        0.820   1.723   0.000   2.544
   82        0.820   1.722   0.000   2.542
   83        0.819   1.712   0.000   2.531
   84        0.820   1.722   0.000   2.542
   85        0.820   1.723   0.000   2.543
   86        0.820   1.721   0.000   2.541
   87        0.819   1.712   0.000   2.531
   88        0.820   1.721   0.000   2.541
   89        0.823   1.731   0.000   2.554
   90        0.820   1.719   0.000   2.539
   91        0.820   1.721   0.000   2.541
   92        0.822   1.715   0.000   2.537
   93        0.820   1.721   0.000   2.541
   94        0.820   1.722   0.000   2.542
   95        0.820   1.722   0.000   2.542
   96        0.822   1.715   0.000   2.537
   97        0.820   1.722   0.000   2.542
   98        0.820   1.721   0.000   2.541
   99        0.820   1.722   0.000   2.542
  100        0.820   1.723   0.000   2.543
  101        0.820   1.721   0.000   2.541
  102        0.820   1.723   0.000   2.543
  103        0.820   1.722   0.000   2.542
  104        0.820   1.723   0.000   2.542
  105        0.820   1.721   0.000   2.541
  106        0.820   1.723   0.000   2.542
  107        0.820   1.725   0.000   2.545
  108        0.821   1.731   0.000   2.552
  109        0.820   1.722   0.000   2.542
  110        0.820   1.720   0.000   2.540
  111        0.820   1.721   0.000   2.540
  112        0.820   1.722   0.000   2.542
  113        0.820   1.720   0.000   2.540
  114        0.820   1.721   0.000   2.541
  115        0.820   1.722   0.000   2.542
  116        0.819   1.713   0.000   2.532
  117        0.820   1.722   0.000   2.542
  118        0.821   1.727   0.000   2.548
  119        0.820   1.722   0.000   2.542
  120        0.820   1.722   0.000   2.542
  121        0.820   1.721   0.000   2.541
  122        0.820   1.720   0.000   2.540
  123        0.820   1.722   0.000   2.542
  124        0.820   1.721   0.000   2.541
  125        0.820   1.723   0.000   2.543
  126        0.820   1.720   0.000   2.540
  127        0.820   1.722   0.000   2.542
  128        0.815   1.686   0.000   2.501
  129        0.820   1.720   0.000   2.540
  130        0.820   1.720   0.000   2.540
  131        0.819   1.720   0.000   2.539
  132        0.819   1.713   0.000   2.532
  133        0.820   1.723   0.000   2.543
  134        0.820   1.723   0.000   2.544
  135        0.828   1.707   0.000   2.535
  136        0.820   1.722   0.000   2.542
  137        0.819   1.712   0.000   2.531
  138        0.820   1.719   0.000   2.539
  139        0.820   1.721   0.000   2.541
  140        0.822   1.715   0.000   2.537
  141        0.820   1.722   0.000   2.542
  142        0.820   1.723   0.000   2.543
  143        0.820   1.721   0.000   2.541
  144        0.820   1.722   0.000   2.542
  145        0.820   1.723   0.000   2.543
  146        0.820   1.721   0.000   2.541
  147        0.820   1.721   0.000   2.541
  148        0.820   1.722   0.000   2.542
  149        0.820   1.722   0.000   2.542
  150        0.820   1.723   0.000   2.543
  151        0.820   1.722   0.000   2.542
  152        0.820   1.723   0.000   2.542
  153        0.819   1.712   0.000   2.531
  154        0.820   1.721   0.000   2.541
  155        0.823   1.731   0.000   2.554
  156        0.822   1.715   0.000   2.537
  157        0.820   1.722   0.000   2.542
  158        0.820   1.721   0.000   2.541
  159        0.820   1.721   0.000   2.541
  160        0.820   1.723   0.000   2.542
  161        0.820   1.725   0.000   2.545
  162        0.821   1.731   0.000   2.552
  163        0.820   1.721   0.000   2.540
  164        0.820   1.721   0.000   2.541
  165        0.820   1.722   0.000   2.542
  166        0.820   1.722   0.000   2.542
  167        0.820   1.722   0.000   2.542
  168        0.820   1.720   0.000   2.540
  169        0.820   1.720   0.000   2.540
  170        0.819   1.713   0.000   2.532
  171        0.820   1.722   0.000   2.542
  172        0.820   1.722   0.000   2.542
  173        0.820   1.722   0.000   2.542
  174        0.821   1.727   0.000   2.548
  175        0.820   1.721   0.000   2.541
  176        0.820   1.721   0.000   2.541
  177        0.820   1.722   0.000   2.542
  178        0.820   1.720   0.000   2.540
  179        0.820   1.723   0.000   2.543
  180        0.820   1.720   0.000   2.540
  181        0.820   1.720   0.000   2.540
  182        0.819   1.713   0.000   2.532
  183        0.820   1.722   0.000   2.542
  184        0.820   1.720   0.000   2.540
  185        0.820   1.723   0.000   2.543
  186        0.815   1.686   0.000   2.501
  187        0.819   1.720   0.000   2.539
  188        0.820   1.723   0.000   2.544
  189        0.828   1.707   0.000   2.535
  190        0.820   1.719   0.000   2.539
  191        0.820   1.722   0.000   2.542
  192        0.820   1.722   0.000   2.542
  193        0.820   1.721   0.000   2.541
  194        0.820   1.723   0.000   2.543
  195        0.819   1.712   0.000   2.531
  196        0.822   1.715   0.000   2.537
  197        0.820   1.721   0.000   2.541
  198        0.820   1.722   0.000   2.542
  199        0.820   1.721   0.000   2.541
  200        0.820   1.723   0.000   2.543
  201        0.820   1.723   0.000   2.543
  202        0.820   1.722   0.000   2.542
  203        0.820   1.722   0.000   2.542
  204        0.820   1.721   0.000   2.541
  205        0.820   1.722   0.000   2.542
  206        0.820   1.723   0.000   2.542
  207        0.819   1.712   0.000   2.531
  208        0.822   1.715   0.000   2.537
  209        0.820   1.721   0.000   2.541
  210        0.820   1.721   0.000   2.541
  211        0.820   1.722   0.000   2.542
  212        0.820   1.723   0.000   2.542
  213        0.823   1.731   0.000   2.554
  214        0.820   1.721   0.000   2.541
  215        0.820   1.725   0.000   2.545
--------------------------------------------------
tot        176.686 370.952   0.000 547.639
 


 magnetization (x)
 
# of ion       s       p       d       tot
------------------------------------------
    1       -0.001   0.000   0.000  -0.001
    2        0.038   0.281   0.000   0.319
    3       -0.000  -0.001   0.000  -0.001
    4       -0.000  -0.001   0.000  -0.001
    5       -0.000  -0.001   0.000  -0.001
    6        0.000   0.002   0.000   0.002
    7        0.001   0.003   0.000   0.004
    8       -0.000  -0.001   0.000  -0.001
    9        0.001   0.003   0.000   0.004
   10        0.000   0.000   0.000   0.000
   11       -0.000  -0.001   0.000  -0.001
   12        0.000   0.002   0.000   0.002
   13        0.001   0.003   0.000   0.004
   14        0.000   0.002   0.000   0.002
   15       -0.000  -0.000   0.000  -0.000
   16       -0.000  -0.000   0.000  -0.000
   17        0.001   0.003   0.000   0.004
   18       -0.000  -0.000   0.000  -0.000
   19        0.000   0.000   0.000   0.000
   20       -0.000  -0.001   0.000  -0.001
   21        0.001   0.003   0.000   0.004
   22        0.000   0.000   0.000   0.000
   23        0.001   0.003   0.000   0.004
   24       -0.000  -0.000   0.000  -0.000
   25        0.000   0.000   0.000   0.000
   26        0.000   0.000   0.000   0.000
   27        0.000   0.000   0.000   0.000
   28       -0.000   0.000   0.000   0.000
   29        0.001   0.007   0.000   0.008
   30        0.000   0.001   0.000   0.001
   31        0.001   0.007   0.000   0.008
   32        0.004   0.017   0.000   0.021
   33        0.000   0.000   0.000   0.000
   34        0.000   0.001   0.000   0.001
   35        0.000   0.000   0.000   0.000
   36        0.000   0.000   0.000   0.000
   37        0.001   0.007   0.000   0.008
   38        0.004   0.017   0.000   0.021
   39        0.000   0.000   0.000   0.000
   40        0.004   0.017   0.000   0.021
   41       -0.000   0.000   0.000   0.000
   42        0.000   0.001   0.000   0.001
   43        0.000   0.000   0.000   0.000
   44        0.000   0.001   0.000   0.001
   45        0.000   0.000   0.000   0.000
   46        0.000   0.001   0.000   0.001
   47        0.000   0.000   0.000   0.000
   48        0.000   0.000   0.000   0.000
   49        0.000   0.000   0.000   0.000
   50        0.000   0.001   0.000   0.001
   51        0.000   0.000   0.000   0.000
   52        0.000   0.000   0.000   0.000
   53        0.000   0.000   0.000   0.000
   54        0.000   0.000   0.000   0.000
   55       -0.002  -0.009   0.000  -0.012
   56       -0.000  -0.000   0.000  -0.000
   57       -0.002  -0.005   0.000  -0.006
   58       -0.000  -0.000   0.000  -0.000
   59       -0.000   0.002   0.000   0.002
   60       -0.000  -0.000   0.000  -0.000
   61       -0.002  -0.005   0.000  -0.006
   62       -0.000  -0.000   0.000  -0.000
   63       -0.000   0.001   0.000   0.001
   64       -0.000  -0.000   0.000  -0.001
   65       -0.000  -0.000   0.000  -0.000
   66       -0.000  -0.001   0.000  -0.001
   67       -0.000  -0.000   0.000  -0.000
   68       -0.000  -0.000   0.000  -0.000
   69       -0.000  -0.000   0.000  -0.000
   70       -0.000  -0.001   0.000  -0.001
   71       -0.000  -0.000   0.000  -0.000
   72       -0.000  -0.001   0.000  -0.001
   73       -0.000  -0.001   0.000  -0.001
   74       -0.000  -0.000   0.000  -0.000
   75       -0.000  -0.000   0.000  -0.000
   76       -0.000  -0.000   0.000  -0.000
   77       -0.000   0.000   0.000   0.000
   78        0.000  -0.000   0.000  -0.000
   79       -0.000  -0.000   0.000  -0.000
   80        0.000  -0.000   0.000  -0.000
   81       -0.000  -0.000   0.000  -0.000
   82        0.000   0.002   0.000   0.002
   83        0.001   0.004   0.000   0.005
   84        0.000   0.002   0.000   0.002
   85        0.000   0.001   0.000   0.002
   86       -0.000   0.000   0.000   0.000
   87        0.001   0.004   0.000   0.005
   88       -0.000   0.000   0.000   0.000
   89        0.000   0.000   0.000   0.000
   90        0.001   0.008   0.000   0.009
   91        0.000   0.000   0.000   0.000
   92        0.004   0.018   0.000   0.023
   93        0.000   0.000   0.000   0.000
   94        0.000   0.000   0.000   0.000
   95        0.000   0.001   0.000   0.001
   96        0.004   0.018   0.000   0.023
   97        0.000   0.001   0.000   0.001
   98        0.000   0.000   0.000   0.000
   99        0.000   0.001   0.000   0.001
  100        0.000   0.002   0.000   0.002
  101        0.000   0.000   0.000   0.000
  102        0.000   0.002   0.000   0.002
  103        0.000   0.001   0.000   0.001
  104        0.000   0.000   0.000   0.000
  105        0.000   0.000   0.000   0.000
  106        0.000   0.000   0.000   0.000
  107        0.000  -0.000   0.000  -0.000
  108       -0.002  -0.009   0.000  -0.012
  109       -0.000  -0.000   0.000  -0.000
  110       -0.002  -0.005   0.000  -0.006
  111       -0.000  -0.000   0.000  -0.001
  112       -0.000  -0.000   0.000  -0.000
  113       -0.000  -0.001   0.000  -0.001
  114       -0.000  -0.001   0.000  -0.001
  115       -0.000  -0.000   0.000  -0.000
  116       -0.000  -0.000   0.000  -0.000
  117       -0.000  -0.000   0.000  -0.000
  118       -0.000   0.002   0.000   0.002
  119       -0.000  -0.000   0.000  -0.000
  120       -0.000  -0.000   0.000  -0.000
  121       -0.000  -0.000   0.000  -0.000
  122       -0.000  -0.000   0.000  -0.000
  123       -0.000  -0.000   0.000  -0.000
  124       -0.000   0.000   0.000   0.000
  125        0.000  -0.000   0.000  -0.000
  126       -0.002  -0.005   0.000  -0.006
  127       -0.000  -0.000   0.000  -0.000
  128       -0.000   0.001   0.000   0.001
  129       -0.000  -0.001   0.000  -0.001
  130       -0.000  -0.000   0.000  -0.000
  131       -0.000  -0.001   0.000  -0.001
  132       -0.000  -0.000   0.000  -0.000
  133        0.000  -0.000   0.000  -0.000
  134       -0.000  -0.000   0.000  -0.000
  135        0.038   0.281   0.000   0.319
  136        0.000   0.002   0.000   0.002
  137        0.001   0.004   0.000   0.005
  138        0.001   0.008   0.000   0.009
  139        0.000   0.000   0.000   0.000
  140        0.004   0.018   0.000   0.023
  141        0.000   0.001   0.000   0.001
  142        0.000   0.002   0.000   0.002
  143        0.000   0.000   0.000   0.000
  144        0.000   0.002   0.000   0.002
  145        0.000   0.001   0.000   0.002
  146       -0.000   0.000   0.000   0.000
  147        0.000   0.000   0.000   0.000
  148        0.000   0.000   0.000   0.000
  149        0.000   0.001   0.000   0.001
  150        0.000   0.002   0.000   0.002
  151        0.000   0.001   0.000   0.001
  152        0.000   0.000   0.000   0.000
  153        0.001   0.004   0.000   0.005
  154       -0.000   0.000   0.000   0.000
  155        0.000   0.000   0.000   0.000
  156        0.004   0.018   0.000   0.023
  157        0.000   0.001   0.000   0.001
  158        0.000   0.000   0.000   0.000
  159        0.000   0.000   0.000   0.000
  160        0.000   0.000   0.000   0.000
  161        0.000  -0.000   0.000  -0.000
  162       -0.002  -0.009   0.000  -0.012
  163       -0.000  -0.000   0.000  -0.001
  164       -0.000  -0.001   0.000  -0.001
  165       -0.000  -0.000   0.000  -0.000
  166       -0.000  -0.000   0.000  -0.000
  167       -0.000  -0.000   0.000  -0.000
  168       -0.002  -0.005   0.000  -0.006
  169       -0.000  -0.001   0.000  -0.001
  170       -0.000  -0.000   0.000  -0.000
  171       -0.000  -0.000   0.000  -0.000
  172       -0.000  -0.000   0.000  -0.000
  173       -0.000  -0.000   0.000  -0.000
  174       -0.000   0.002   0.000   0.002
  175       -0.000  -0.000   0.000  -0.000
  176       -0.000   0.000   0.000   0.000
  177       -0.000  -0.000   0.000  -0.000
  178       -0.000  -0.000   0.000  -0.000
  179        0.000  -0.000   0.000  -0.000
  180       -0.002  -0.005   0.000  -0.006
  181       -0.000  -0.001   0.000  -0.001
  182       -0.000  -0.000   0.000  -0.000
  183       -0.000  -0.000   0.000  -0.000
  184       -0.000  -0.000   0.000  -0.000
  185        0.000  -0.000   0.000  -0.000
  186       -0.000   0.001   0.000   0.001
  187       -0.000  -0.001   0.000  -0.001
  188       -0.000  -0.000   0.000  -0.000
  189        0.038   0.281   0.000   0.319
  190        0.001   0.008   0.000   0.009
  191        0.000   0.001   0.000   0.001
  192        0.000   0.002   0.000   0.002
  193        0.000   0.000   0.000   0.000
  194        0.000   0.002   0.000   0.002
  195        0.001   0.004   0.000   0.005
  196        0.004   0.018   0.000   0.023
  197        0.000   0.000   0.000   0.000
  198        0.000   0.002   0.000   0.002
  199        0.000   0.000   0.000   0.000
  200        0.000   0.002   0.000   0.002
  201        0.000   0.001   0.000   0.002
  202        0.000   0.000   0.000   0.000
  203        0.000   0.001   0.000   0.001
  204       -0.000   0.000   0.000   0.000
  205        0.000   0.001   0.000   0.001
  206        0.000   0.000   0.000   0.000
  207        0.001   0.004   0.000   0.005
  208        0.004   0.018   0.000   0.023
  209        0.000   0.000   0.000   0.000
  210       -0.000   0.000   0.000   0.000
  211        0.000   0.001   0.000   0.001
  212        0.000   0.000   0.000   0.000
  213        0.000   0.000   0.000   0.000
  214        0.000   0.000   0.000   0.000
  215        0.000  -0.000   0.000  -0.000
--------------------------------------------------
tot          0.151   1.083   0.000   1.234
 

 total amount of memory used by VASP MPI-rank0    58252. kBytes
=======================================================================

   base      :      30000. kBytes
   nonlr-proj:       3282. kBytes
   fftplans  :       3561. kBytes
   grid      :      10185. kBytes
   one-center:        165. kBytes
   wavefun   :      11059. kBytes
 
  
  
 General timing and accounting informations for this job:
 ========================================================
  
                  Total CPU time used (sec):      198.289
                            User time (sec):      184.666
                          System time (sec):       13.623
                         Elapsed time (sec):      213.593
  
                   Maximum memory used (kb):      152096.
                   Average memory used (kb):           0.
  
                          Minor page faults:       104976
                          Major page faults:            0
                 Voluntary context switches:         4673
