 vasp.5.4.4.18Apr17-6-g9f103f2a35 (build May 09 2017 17:24:04) gamma-only       
  
 executed on             LinuxIFC date 2023.04.02  20:22:01
 running on   28 total cores
 distrk:  each k-point on   28 cores,    1 groups
 distr:  one band on NCORES_PER_BAND=   4 cores,    7 groups


--------------------------------------------------------------------------------------------------------


 INCAR:
 POTCAR:    PAW_PBE N 08Apr2002                   
 POTCAR:    PAW_PBE C 08Apr2002                   
 POTCAR:    PAW_PBE N 08Apr2002                   
   VRHFIN =N: s2p3                                                              
   LEXCH  = PE                                                                  
   EATOM  =   264.5486 eV,   19.4438 Ry                                         
                                                                                
   TITEL  = PAW_PBE N 08Apr2002                                                 
   LULTRA =        F    use ultrasoft PP ?                                      
   IUNSCR =        1    unscreen: 0-lin 1-nonlin 2-no                           
   RPACOR =    1.200    partial core radius                                     
   POMASS =   14.001; ZVAL   =    5.000    mass and valenz                      
   RCORE  =    1.500    outmost cutoff radius                                   
   RWIGS  =    1.400; RWIGS  =    0.741    wigner-seitz radius (au A)           
   ENMAX  =  400.000; ENMIN  =  300.000 eV                                      
   ICORE  =        2    local potential                                         
   LCOR   =        T    correct aug charges                                     
   LPAW   =        T    paw PP                                                  
   EAUG   =  627.112                                                            
   DEXC   =    0.000                                                            
   RMAX   =    1.529    core radius for proj-oper                               
   RAUG   =    1.300    factor for augmentation sphere                          
   RDEP   =    1.514    radius for radial grids                                 
   RDEPT  =    1.338    core radius for aug-charge                              
                                                                                
   Atomic configuration                                                         
    4 entries                                                                   
     n  l   j            E        occ.                                          
     1  0  0.50      -384.7179   2.0000                                         
     2  0  0.50       -18.5828   2.0000                                         
     2  1  0.50        -7.0898   3.0000                                         
     3  2  1.50        -6.8029   0.0000                                         
   Description                                                                  
     l       E           TYP  RCUT    TYP  RCUT                                 
     0    -18.5828119     23  1.200                                             
     0    -13.5018863     23  1.200                                             
     1     -7.0897853     23  1.500                                             
     1      9.5240782     23  1.500                                             
     2     -6.8029130      7  1.500                                             
  local pseudopotential read in
  partial core-charges read in
  partial kinetic energy density read in
  atomic valenz-charges read in
  non local Contribution for L=           0  read in
    real space projection operators read in
  non local Contribution for L=           0  read in
    real space projection operators read in
  non local Contribution for L=           1  read in
    real space projection operators read in
  non local Contribution for L=           1  read in
    real space projection operators read in
    PAW grid and wavefunctions read in
 
   number of l-projection  operators is LMAX  =           4
   number of lm-projection operators is LMMAX =           8
 
 POTCAR:    PAW_PBE C 08Apr2002                   
   VRHFIN =C: s2p2                                                              
   LEXCH  = PE                                                                  
   EATOM  =   147.1560 eV,   10.8157 Ry                                         
                                                                                
   TITEL  = PAW_PBE C 08Apr2002                                                 
   LULTRA =        F    use ultrasoft PP ?                                      
   IUNSCR =        1    unscreen: 0-lin 1-nonlin 2-no                           
   RPACOR =    1.200    partial core radius                                     
   POMASS =   12.011; ZVAL   =    4.000    mass and valenz                      
   RCORE  =    1.500    outmost cutoff radius                                   
   RWIGS  =    1.630; RWIGS  =    0.863    wigner-seitz radius (au A)           
   ENMAX  =  400.000; ENMIN  =  300.000 eV                                      
   ICORE  =        2    local potential                                         
   LCOR   =        T    correct aug charges                                     
   LPAW   =        T    paw PP                                                  
   EAUG   =  644.873                                                            
   DEXC   =    0.000                                                            
   RMAX   =    1.529    core radius for proj-oper                               
   RAUG   =    1.300    factor for augmentation sphere                          
   RDEP   =    1.501    radius for radial grids                                 
   RDEPT  =    1.300    core radius for aug-charge                              
                                                                                
   Atomic configuration                                                         
    4 entries                                                                   
     n  l   j            E        occ.                                          
     1  0  0.50      -273.3789   2.0000                                         
     2  0  0.50       -13.7508   2.0000                                         
     2  1  0.50        -5.2854   2.0000                                         
     3  2  1.50        -5.4423   0.0000                                         
   Description                                                                  
     l       E           TYP  RCUT    TYP  RCUT                                 
     0    -13.7508458     23  1.200                                             
     0     -8.2022199     23  1.200                                             
     1     -5.2854383     23  1.500                                             
     1     34.0145650     23  1.500                                             
     2     -5.4423304      7  1.500                                             
  local pseudopotential read in
  partial core-charges read in
  partial kinetic energy density read in
  atomic valenz-charges read in
  non local Contribution for L=           0  read in
    real space projection operators read in
  non local Contribution for L=           0  read in
    real space projection operators read in
  non local Contribution for L=           1  read in
    real space projection operators read in
  non local Contribution for L=           1  read in
    real space projection operators read in
    PAW grid and wavefunctions read in
 
   number of l-projection  operators is LMAX  =           4
   number of lm-projection operators is LMMAX =           8
 
 Optimization of the real space projectors (new method)

 maximal supplied QI-value         = 25.13
 optimisation between [QCUT,QGAM] = [ 11.56, 23.12] = [ 37.43,149.72] Ry 
 Optimized for a Real-space Cutoff    1.25 Angstroem

   l    n(q)    QCUT    max X(q) W(low)/X(q) W(high)/X(q)  e(spline) 
   0      9    11.561    79.467    0.52E-04    0.16E-03    0.37E-06
   0      9    11.561    66.151    0.51E-04    0.16E-03    0.37E-06
   1      8    11.561    18.886    0.46E-03    0.28E-03    0.80E-06
   1      8    11.561    13.488    0.47E-03    0.29E-03    0.82E-06
 Optimization of the real space projectors (new method)

 maximal supplied QI-value         = 25.13
 optimisation between [QCUT,QGAM] = [ 11.56, 23.12] = [ 37.43,149.72] Ry 
 Optimized for a Real-space Cutoff    1.04 Angstroem

   l    n(q)    QCUT    max X(q) W(low)/X(q) W(high)/X(q)  e(spline) 
   0      7    11.561   115.676    0.20E-03    0.60E-03    0.21E-06
   0      7    11.561    87.132    0.20E-03    0.59E-03    0.21E-06
   1      7    11.561     4.429    0.23E-03    0.35E-03    0.15E-06
   1      7    11.561     2.733    0.18E-03    0.25E-03    0.12E-06

 ----------------------------------------------------------------------------- 
|                                                                             |
|  ADVICE TO THIS USER RUNNING 'VASP/VAMP'   (HEAR YOUR MASTER'S VOICE ...):  |
|                                                                             |
|      You enforced a specific xc-type in the INCAR file,                     |
|      a different type was found on the POTCAR file                          |
|          I HOPE YOU KNOW, WHAT YOU ARE  DOING                               |
|                                                                             |
 ----------------------------------------------------------------------------- 

  PAW_PBE N 08Apr2002                   :
 energy of atom  1       EATOM= -264.5486
 kinetic energy error for atom=    0.0125 (will be added to EATOM!!)
  PAW_PBE C 08Apr2002                   :
 energy of atom  2       EATOM= -147.1560
 kinetic energy error for atom=    0.0071 (will be added to EATOM!!)
 
 
 POSCAR: NC510                                   
  positions in cartesian coordinates
  velocities in cartesian coordinates
  No initial velocities read in
 exchange correlation table for  LEXCH =       14
   RHO(1)=    0.500       N(1)  =     2000
   RHO(2)=  100.500       N(2)  =     4000
 


--------------------------------------------------------------------------------------------------------


 ion  position               nearest neighbor table
   1  0.567  0.569  0.569- 363 1.47 490 1.47 236 1.47
   2  0.433  0.564  0.434- 346 1.49 235 1.50 474 1.50
   3  0.565  0.433  0.433- 231 1.49 362 1.49 486 1.49
   4  0.433  0.434  0.564- 470 1.49 232 1.50 347 1.50
   5  0.063  0.062  0.062- 194 1.54  68 1.54 321 1.54 448 1.54
   6  0.063  0.062  0.312- 322 1.54 195 1.54  69 1.54 449 1.54
   7  0.062  0.063  0.562- 323 1.54 450 1.54  70 1.54 196 1.54
   8  0.062  0.063  0.812- 197 1.54  71 1.54 451 1.54 324 1.54
   9  0.063  0.312  0.062- 452 1.54 198 1.54  72 1.54 325 1.54
  10  0.063  0.312  0.312- 326 1.54 453 1.54  73 1.54 199 1.54
  11  0.063  0.313  0.562- 454 1.54 327 1.54  74 1.54 200 1.54
  12  0.062  0.313  0.812- 455 1.54 201 1.54  75 1.54 328 1.54
  13  0.062  0.562  0.063- 456 1.54 329 1.54  76 1.54 202 1.54
  14  0.063  0.562  0.313- 330 1.54 457 1.54  77 1.54 203 1.54
  15  0.062  0.563  0.563- 458 1.54 331 1.54  78 1.54 204 1.54
  16  0.062  0.563  0.813- 459 1.54 205 1.54 332 1.54  79 1.54
  17  0.062  0.812  0.063- 206 1.54  80 1.54 333 1.54 460 1.54
  18  0.062  0.812  0.313- 334 1.54 207 1.54  81 1.54 461 1.54
  19  0.062  0.813  0.563- 335 1.54 208 1.54 462 1.54  82 1.54
  20  0.062  0.813  0.813- 209 1.54  83 1.54 336 1.54 463 1.54
  21  0.313  0.062  0.062- 210 1.54  84 1.54 337 1.54 464 1.54
  22  0.313  0.062  0.312- 338 1.54  85 1.54 211 1.54 465 1.54
  23  0.313  0.063  0.562- 339 1.54 212 1.54  86 1.54 466 1.54
  24  0.312  0.063  0.812- 213 1.54  87 1.54 467 1.54 340 1.54
  25  0.313  0.312  0.062- 468 1.54  88 1.54 214 1.54 341 1.54
  26  0.313  0.312  0.312- 342 1.54 469 1.54  89 1.54 215 1.54
  27  0.312  0.312  0.562-  90 1.54 343 1.54 470 1.55 216 1.55
  28  0.313  0.313  0.812- 471 1.54 217 1.54  91 1.54 344 1.54
  29  0.313  0.562  0.063- 472 1.54 218 1.54  92 1.54 345 1.54
  30  0.312  0.562  0.312-  93 1.54 473 1.54 346 1.55 219 1.55
  31  0.312  0.563  0.563- 347 1.53 474 1.53  94 1.54 220 1.55
  32  0.312  0.563  0.813- 348 1.54  95 1.54 221 1.54 475 1.54
  33  0.312  0.812  0.063- 222 1.54  96 1.54 349 1.54 476 1.54
  34  0.313  0.812  0.313- 350 1.54 223 1.54  97 1.54 477 1.54
  35  0.312  0.813  0.563- 478 1.54  98 1.54 224 1.54 351 1.54
  36  0.312  0.813  0.813- 225 1.54  99 1.54 352 1.54 479 1.54
  37  0.563  0.062  0.062- 226 1.53 100 1.54 480 1.54 353 1.54
  38  0.563  0.062  0.312- 354 1.54 101 1.54 227 1.54 481 1.54
  39  0.562  0.063  0.562- 355 1.54 102 1.54 228 1.54 482 1.54
  40  0.562  0.063  0.812- 229 1.54 103 1.54 483 1.54 356 1.54
  41  0.563  0.312  0.062- 484 1.54 104 1.54 230 1.54 357 1.54
  42  0.563  0.311  0.311- 105 1.53 358 1.54 485 1.54 231 1.55
  43  0.562  0.313  0.561- 486 1.53 106 1.54 359 1.54 232 1.54
  44  0.562  0.313  0.812- 233 1.54 107 1.54 487 1.54 360 1.55
  45  0.562  0.562  0.063- 488 1.54 108 1.54 234 1.54 361 1.54
  46  0.562  0.561  0.313- 362 1.53 109 1.54 489 1.54 235 1.54
  47  0.562  0.563  0.813- 491 1.54 237 1.54 364 1.54 110 1.54
  48  0.562  0.812  0.063- 238 1.54 111 1.54 365 1.54 492 1.54
  49  0.562  0.812  0.313- 239 1.54 112 1.54 366 1.54 493 1.55
  50  0.562  0.813  0.563- 367 1.54 240 1.54 494 1.54 113 1.54
  51  0.562  0.813  0.813- 241 1.53 114 1.54 495 1.54 368 1.54
  52  0.813  0.062  0.062- 242 1.54 115 1.54 369 1.54 496 1.54
  53  0.813  0.062  0.312- 370 1.54 243 1.54 116 1.54 497 1.54
  54  0.812  0.063  0.562- 371 1.54 117 1.54 244 1.54 498 1.54
  55  0.812  0.063  0.812- 245 1.54 118 1.54 499 1.54 372 1.54
  56  0.813  0.312  0.062- 500 1.54 246 1.54 119 1.54 373 1.54
  57  0.813  0.312  0.312- 374 1.54 501 1.54 120 1.54 247 1.54
  58  0.812  0.313  0.562- 502 1.54 375 1.54 121 1.54 248 1.55
  59  0.812  0.313  0.812- 503 1.54 249 1.54 122 1.54 376 1.54
  60  0.812  0.562  0.063- 504 1.54 123 1.54 250 1.54 377 1.54
  61  0.812  0.562  0.313- 378 1.54 505 1.54 124 1.54 251 1.55
  62  0.812  0.563  0.563- 379 1.54 506 1.54 125 1.55 252 1.55
  63  0.812  0.563  0.813- 507 1.54 126 1.54 380 1.54 253 1.54
  64  0.812  0.812  0.063- 254 1.54 127 1.54 381 1.54 508 1.54
  65  0.812  0.812  0.313- 382 1.54 255 1.54 128 1.54 509 1.54
  66  0.812  0.813  0.563- 383 1.54 129 1.54 510 1.54 256 1.54
  67  0.812  0.813  0.813- 257 1.54 130 1.54 384 1.54 511 1.54
  68  0.000  1.000  1.000- 146 1.53   5 1.54 308 1.54 444 1.54
  69  0.001  0.999  0.250- 143 1.54   6 1.54 305 1.54 445 1.54
  70  0.000  1.000  0.500- 306 1.54 144 1.54   7 1.54 446 1.54
  71  1.000  0.001  0.750- 145 1.54   8 1.54 307 1.54 447 1.54
  72  0.001  0.250  0.999- 134 1.54   9 1.54 432 1.54 312 1.54
  73  0.001  0.249  0.249- 131 1.54 309 1.54 433 1.54  10 1.54
  74  0.000  0.250  0.499- 310 1.54 434 1.54  11 1.54 132 1.54
  75  1.000  0.251  0.749- 133 1.54 435 1.54 311 1.54  12 1.54
  76  0.000  0.500  1.000- 436 1.54 138 1.54  13 1.54 316 1.54
  77  0.000  0.499  0.250- 437 1.54 313 1.54  14 1.54 135 1.54
  78  1.000  0.500  0.500- 314 1.54 438 1.54  15 1.54 136 1.55
  79  0.999  0.501  0.750- 439 1.54 315 1.54  16 1.54 137 1.54
  80  1.000  0.750  0.001- 142 1.54  17 1.54 440 1.54 320 1.54
  81  1.000  0.749  0.251- 139 1.54 317 1.54 441 1.54  18 1.54
  82  0.999  0.750  0.501- 318 1.54 442 1.54  19 1.54 140 1.54
  83  0.999  0.751  0.751- 141 1.54 443 1.54 319 1.54  20 1.54
  84  0.250  0.000  0.000- 162 1.53  21 1.54 261 1.54 397 1.54
  85  0.251  0.999  0.250- 159 1.54  22 1.54 258 1.54 398 1.54
  86  0.250  0.000  0.500- 259 1.54 160 1.54  23 1.54 399 1.54
  87  0.250  0.001  0.750- 161 1.54  24 1.54 260 1.54 400 1.54
  88  0.251  0.250  0.999- 150 1.54  25 1.54 385 1.54 265 1.54
  89  0.251  0.249  0.249- 147 1.54 262 1.54 386 1.54  26 1.54
  90  0.250  0.250  0.499-  27 1.54 387 1.54 263 1.54 148 1.54
  91  0.250  0.251  0.749- 149 1.54 264 1.54 388 1.54  28 1.54
  92  0.250  0.500  0.000- 389 1.54 154 1.54  29 1.54 269 1.54
  93  0.250  0.499  0.250-  30 1.54 266 1.54 390 1.54 151 1.54
  94  0.250  0.500  0.500- 267 1.54 391 1.54  31 1.54 152 1.54
  95  0.249  0.501  0.750- 392 1.54 153 1.54 268 1.54  32 1.54
  96  0.250  0.750  0.001- 158 1.54  33 1.54 393 1.54 273 1.54
  97  0.250  0.749  0.251- 155 1.54 394 1.54 270 1.54  34 1.54
  98  0.249  0.750  0.501- 271 1.54 156 1.54 395 1.54  35 1.54
  99  0.249  0.751  0.751- 272 1.54 396 1.54  36 1.54 157 1.54
 100  0.500  0.000  0.000- 177 1.53  37 1.54 277 1.54 412 1.54
 101  0.501  0.999  0.250- 174 1.54  38 1.54 274 1.54 413 1.54
 102  0.500  0.000  0.500- 275 1.54  39 1.54 175 1.54 414 1.54
 103  0.500  0.001  0.750- 176 1.54  40 1.54 276 1.54 415 1.54
 104  0.501  0.250  0.999- 166 1.54  41 1.54 401 1.54 281 1.54
 105  0.501  0.249  0.249-  42 1.53 163 1.54 278 1.54 402 1.54
 106  0.500  0.250  0.499- 279 1.54  43 1.54 403 1.54 164 1.54
 107  0.500  0.251  0.749- 280 1.54  44 1.54 404 1.54 165 1.54
 108  0.500  0.500  0.000- 405 1.54  45 1.54 169 1.54 284 1.54
 109  0.500  0.499  0.250- 406 1.54  46 1.54 282 1.54 167 1.54
 110  0.499  0.501  0.750- 283 1.53 168 1.54 407 1.54  47 1.54
 111  0.500  0.750  0.001- 173 1.54  48 1.54 408 1.54 288 1.54
 112  0.500  0.749  0.251- 409 1.54  49 1.54 285 1.54 170 1.54
 113  0.499  0.750  0.501- 410 1.53 171 1.54 286 1.54  50 1.54
 114  0.499  0.751  0.751- 172 1.53  51 1.54 287 1.54 411 1.54
 115  0.750  1.000  1.000- 193 1.53  52 1.54 292 1.54 428 1.54
 116  0.751  0.999  0.250- 190 1.54  53 1.54 289 1.54 429 1.54
 117  0.750  1.000  0.500- 290 1.54 191 1.54  54 1.54 430 1.54
 118  0.750  0.001  0.750- 192 1.54  55 1.54 291 1.54 431 1.54
 119  0.751  0.250  0.999- 181 1.54  56 1.54 416 1.54 296 1.54
 120  0.751  0.249  0.249- 178 1.54 293 1.54 417 1.54  57 1.54
 121  0.750  0.250  0.499- 294 1.53 418 1.54  58 1.54 179 1.54
 122  0.750  0.251  0.749- 419 1.54  59 1.54 180 1.54 295 1.54
 123  0.750  0.500  1.000- 420 1.54 185 1.54  60 1.54 300 1.54
 124  0.750  0.499  0.250- 421 1.53 297 1.54  61 1.54 182 1.54
 125  0.749  0.500  0.500- 298 1.53 422 1.53  62 1.55 183 1.55
 126  0.750  0.501  0.750- 299 1.53 423 1.54  63 1.54 184 1.54
 127  0.750  0.750  0.001- 189 1.54  64 1.54 424 1.54 304 1.54
 128  0.750  0.749  0.251- 301 1.54  65 1.54 186 1.54 425 1.54
 129  0.750  0.750  0.501- 426 1.53 302 1.54  66 1.54 187 1.54
 130  0.749  0.751  0.751-  67 1.54 303 1.54 427 1.54 188 1.54
 131  0.063  0.187  0.187-  73 1.54 194 1.54 325 1.54 449 1.54
 132  0.063  0.187  0.437- 450 1.54 326 1.54 195 1.54  74 1.54
 133  0.062  0.188  0.687- 327 1.54  75 1.54 451 1.54 196 1.54
 134  0.063  0.188  0.937-  72 1.54 197 1.54 328 1.54 448 1.54
 135  0.063  0.437  0.187- 329 1.54 453 1.54 198 1.54  77 1.54
 136  0.063  0.437  0.437- 330 1.54 454 1.54 199 1.54  78 1.55
 137  0.062  0.438  0.687- 331 1.54 455 1.54 200 1.54  79 1.54
 138  0.062  0.438  0.937- 332 1.54  76 1.54 201 1.54 452 1.54
 139  0.062  0.687  0.188- 457 1.54  81 1.54 333 1.54 202 1.54
 140  0.062  0.687  0.438- 458 1.54 334 1.54 203 1.54  82 1.54
 141  0.062  0.688  0.688- 335 1.54 459 1.54  83 1.54 204 1.54
 142  0.062  0.688  0.938-  80 1.54 336 1.54 205 1.54 456 1.54
 143  0.063  0.937  0.188-  69 1.54 206 1.54 461 1.54 321 1.54
 144  0.062  0.937  0.438- 462 1.54  70 1.54 207 1.54 322 1.54
 145  0.062  0.938  0.688-  71 1.54 463 1.54 208 1.54 323 1.54
 146  0.062  0.938  0.938-  68 1.53 209 1.54 324 1.54 460 1.54
 147  0.313  0.187  0.187- 210 1.54  89 1.54 341 1.54 465 1.54
 148  0.313  0.187  0.437- 466 1.54 211 1.54 342 1.54  90 1.54
 149  0.313  0.188  0.687-  91 1.54 467 1.54 343 1.54 212 1.54
 150  0.313  0.188  0.937-  88 1.54 213 1.54 344 1.54 464 1.54
 151  0.313  0.437  0.187- 345 1.54 214 1.54 469 1.54  93 1.54
 152  0.313  0.437  0.437- 346 1.54 470 1.54 215 1.54  94 1.54
 153  0.312  0.439  0.688-  95 1.54 471 1.54 216 1.54 347 1.55
 154  0.313  0.438  0.937- 348 1.54  92 1.54 217 1.54 468 1.54
 155  0.313  0.687  0.188-  97 1.54 349 1.54 473 1.54 218 1.54
 156  0.312  0.688  0.439-  98 1.54 350 1.54 219 1.54 474 1.55
 157  0.312  0.688  0.688- 351 1.54 475 1.54  99 1.54 220 1.54
 158  0.312  0.688  0.938-  96 1.54 352 1.54 221 1.54 472 1.54
 159  0.313  0.937  0.188-  85 1.54 222 1.54 477 1.54 337 1.54
 160  0.313  0.937  0.438- 478 1.54  86 1.54 223 1.54 338 1.54
 161  0.312  0.938  0.688-  87 1.54 479 1.54 224 1.54 339 1.54
 162  0.312  0.938  0.938-  84 1.53 225 1.54 340 1.54 476 1.54
 163  0.563  0.187  0.187- 105 1.54 226 1.54 357 1.54 481 1.54
 164  0.563  0.187  0.437- 482 1.54 358 1.54 227 1.54 106 1.54
 165  0.562  0.188  0.687- 228 1.54 107 1.54 483 1.54 359 1.54
 166  0.563  0.188  0.937- 104 1.54 229 1.54 360 1.54 480 1.54
 167  0.563  0.437  0.187- 361 1.54 485 1.54 230 1.54 109 1.54
 168  0.561  0.439  0.686- 110 1.54 363 1.54 232 1.54 487 1.55
 169  0.562  0.438  0.937- 364 1.54 233 1.54 108 1.54 484 1.54
 170  0.562  0.687  0.188- 234 1.54 112 1.54 365 1.54 489 1.54
 171  0.561  0.686  0.439- 113 1.54 490 1.54 235 1.54 366 1.55
 172  0.562  0.689  0.689- 114 1.53 236 1.54 367 1.54 491 1.54
 173  0.562  0.688  0.938- 111 1.54 368 1.54 237 1.54 488 1.54
 174  0.563  0.937  0.188- 101 1.54 238 1.54 493 1.54 353 1.54
 175  0.562  0.937  0.438- 494 1.54 239 1.54 102 1.54 354 1.54
 176  0.562  0.938  0.688- 103 1.54 495 1.54 240 1.54 355 1.54
 177  0.562  0.938  0.938- 100 1.53 241 1.54 356 1.54 492 1.54
 178  0.813  0.187  0.187- 242 1.54 120 1.54 373 1.54 497 1.54
 179  0.813  0.187  0.437- 498 1.54 374 1.54 243 1.54 121 1.54
 180  0.812  0.188  0.687- 375 1.54 244 1.54 122 1.54 499 1.54
 181  0.813  0.188  0.937- 119 1.54 245 1.54 376 1.54 496 1.54
 182  0.813  0.437  0.187- 377 1.54 501 1.54 246 1.54 124 1.54
 183  0.812  0.437  0.437- 378 1.54 502 1.54 247 1.54 125 1.55
 184  0.812  0.438  0.687- 379 1.54 503 1.54 126 1.54 248 1.54
 185  0.812  0.438  0.937- 380 1.54 123 1.54 249 1.54 500 1.54
 186  0.812  0.687  0.188- 505 1.54 250 1.54 128 1.54 381 1.54
 187  0.812  0.687  0.438- 506 1.54 382 1.54 129 1.54 251 1.54
 188  0.812  0.688  0.688- 252 1.54 383 1.54 507 1.54 130 1.54
 189  0.812  0.688  0.938- 127 1.54 253 1.54 384 1.54 504 1.54
 190  0.813  0.937  0.188- 116 1.54 254 1.54 509 1.54 369 1.54
 191  0.812  0.937  0.438- 510 1.54 117 1.54 255 1.54 370 1.54
 192  0.812  0.938  0.688- 118 1.54 256 1.54 511 1.54 371 1.54
 193  0.812  0.938  0.938- 115 1.53 257 1.54 372 1.54 508 1.54
 194  0.001  0.124  0.124-   5 1.54 131 1.54 305 1.54 432 1.54
 195  0.001  0.124  0.374- 433 1.54   6 1.54 132 1.54 306 1.54
 196  1.000  0.126  0.624- 434 1.54   7 1.54 133 1.54 307 1.54
 197  0.000  0.125  0.874-   8 1.54 134 1.54 308 1.54 435 1.54
 198  0.001  0.374  0.124- 309 1.54   9 1.54 135 1.54 436 1.54
 199  0.000  0.375  0.375- 310 1.54 437 1.54 136 1.54  10 1.54
 200  1.000  0.375  0.624- 311 1.54 438 1.54 137 1.54  11 1.54
 201  1.000  0.375  0.874- 312 1.54  12 1.54 138 1.54 439 1.54
 202  1.000  0.624  0.126- 313 1.54  13 1.54 139 1.54 440 1.54
 203  1.000  0.624  0.375- 441 1.54 314 1.54 140 1.54  14 1.54
 204  0.999  0.625  0.625- 315 1.54 442 1.54 141 1.54  15 1.54
 205  0.999  0.625  0.875- 316 1.54  16 1.54 142 1.54 443 1.54
 206  0.000  0.874  0.125-  17 1.54 143 1.54 444 1.54 317 1.54
 207  1.000  0.874  0.375- 445 1.54  18 1.54 144 1.54 318 1.54
 208  0.999  0.875  0.625- 446 1.54  19 1.54 145 1.54 319 1.54
 209  1.000  0.875  0.875-  20 1.54 146 1.54 320 1.54 447 1.54
 210  0.251  0.125  0.125-  21 1.54 147 1.54 258 1.54 385 1.54
 211  0.251  0.125  0.375- 386 1.54  22 1.54 148 1.54 259 1.54
 212  0.250  0.126  0.625- 387 1.54  23 1.54 149 1.54 260 1.54
 213  0.250  0.126  0.875-  24 1.54 150 1.54 388 1.54 261 1.54
 214  0.251  0.375  0.125- 262 1.54  25 1.54 151 1.54 389 1.54
 215  0.251  0.375  0.375- 263 1.54 390 1.54 152 1.54  26 1.54
 216  0.250  0.376  0.624- 391 1.54 264 1.54 153 1.54  27 1.55
 217  0.250  0.376  0.875- 265 1.54  28 1.54 154 1.54 392 1.54
 218  0.250  0.625  0.126- 266 1.54  29 1.54 155 1.54 393 1.54
 219  0.250  0.624  0.376- 267 1.54 394 1.54 156 1.54  30 1.55
 220  0.249  0.625  0.625- 268 1.54 395 1.54 157 1.54  31 1.55
 221  0.250  0.626  0.875- 269 1.54 158 1.54 396 1.54  32 1.54
 222  0.250  0.875  0.126-  33 1.54 159 1.54 270 1.54 397 1.54
 223  0.250  0.875  0.376- 398 1.54  34 1.54 160 1.54 271 1.54
 224  0.250  0.875  0.626- 399 1.54 161 1.54 272 1.54  35 1.54
 225  0.250  0.876  0.876-  36 1.54 162 1.54 273 1.54 400 1.54
 226  0.501  0.124  0.124-  37 1.53 163 1.54 274 1.54 401 1.54
 227  0.501  0.125  0.375- 402 1.54 164 1.54  38 1.54 275 1.54
 228  0.500  0.126  0.624- 403 1.54 165 1.54  39 1.54 276 1.54
 229  0.500  0.126  0.875-  40 1.54 166 1.54 404 1.54 277 1.54
 230  0.501  0.375  0.125- 278 1.54 167 1.54  41 1.54 405 1.54
 231  0.501  0.374  0.374-   3 1.49 279 1.54 406 1.54  42 1.55
 232  0.499  0.377  0.623-   4 1.50 168 1.54  43 1.54 280 1.56
 233  0.500  0.376  0.874- 281 1.54  44 1.54 169 1.54 407 1.54
 234  0.500  0.624  0.126- 282 1.54 170 1.54  45 1.54 408 1.54
 235  0.499  0.623  0.377-   2 1.50 171 1.54  46 1.54 409 1.56
 236  0.502  0.626  0.626-   1 1.47 172 1.54 283 1.55 410 1.55
 237  0.499  0.626  0.876- 284 1.54  47 1.54 173 1.54 411 1.54
 238  0.500  0.875  0.126-  48 1.54 174 1.54 285 1.54 412 1.54
 239  0.500  0.874  0.376- 413 1.54  49 1.54 175 1.54 286 1.54
 240  0.499  0.876  0.626- 414 1.54  50 1.54 176 1.54 287 1.54
 241  0.500  0.876  0.876-  51 1.53 177 1.54 288 1.54 415 1.54
 242  0.751  0.124  0.124-  52 1.54 178 1.54 289 1.54 416 1.54
 243  0.751  0.124  0.374- 417 1.54  53 1.54 179 1.54 290 1.54
 244  0.750  0.126  0.624- 418 1.54 180 1.54  54 1.54 291 1.54
 245  0.750  0.125  0.874-  55 1.54 181 1.54 292 1.54 419 1.54
 246  0.751  0.374  0.124- 293 1.54  56 1.54 182 1.54 420 1.54
 247  0.750  0.374  0.374- 294 1.54 421 1.54 183 1.54  57 1.54
 248  0.749  0.376  0.624- 295 1.54 184 1.54 422 1.55  58 1.55
 249  0.750  0.375  0.874- 296 1.54  59 1.54 185 1.54 423 1.54
 250  0.750  0.624  0.126- 297 1.54 186 1.54  60 1.54 424 1.54
 251  0.749  0.624  0.376- 425 1.54 187 1.54 298 1.55  61 1.55
 252  0.750  0.626  0.626- 188 1.54 299 1.54 426 1.54  62 1.55
 253  0.749  0.625  0.876- 300 1.54 189 1.54  63 1.54 427 1.54
 254  0.750  0.874  0.125-  64 1.54 190 1.54 428 1.54 301 1.54
 255  0.750  0.874  0.375- 429 1.54  65 1.54 191 1.54 302 1.54
 256  0.749  0.876  0.625- 430 1.54 192 1.54  66 1.54 303 1.54
 257  0.750  0.875  0.875-  67 1.54 193 1.54 304 1.54 431 1.54
 258  0.188  0.062  0.187- 449 1.54 321 1.54  85 1.54 210 1.54
 259  0.188  0.062  0.437-  86 1.54 322 1.54 450 1.54 211 1.54
 260  0.187  0.063  0.687- 451 1.54  87 1.54 323 1.54 212 1.54
 261  0.188  0.063  0.937- 448 1.53 324 1.54 213 1.54  84 1.54
 262  0.188  0.312  0.187- 214 1.54 325 1.54  89 1.54 453 1.54
 263  0.188  0.312  0.437-  90 1.54 215 1.54 326 1.54 454 1.54
 264  0.187  0.313  0.687- 216 1.54  91 1.54 455 1.54 327 1.54
 265  0.188  0.313  0.937- 217 1.54 452 1.54 328 1.54  88 1.54
 266  0.187  0.562  0.188-  93 1.54 218 1.54 329 1.54 457 1.54
 267  0.187  0.562  0.438- 219 1.54  94 1.54 330 1.54 458 1.54
 268  0.187  0.563  0.688- 220 1.54  95 1.54 459 1.54 331 1.54
 269  0.187  0.563  0.938- 221 1.54 456 1.54 332 1.54  92 1.54
 270  0.188  0.812  0.188- 461 1.54  97 1.54 333 1.54 222 1.54
 271  0.187  0.812  0.438-  98 1.54 462 1.54 223 1.54 334 1.54
 272  0.187  0.813  0.688- 463 1.54  99 1.54 224 1.54 335 1.54
 273  0.187  0.813  0.938- 460 1.53 336 1.54 225 1.54  96 1.54
 274  0.438  0.062  0.187- 465 1.54 337 1.54 101 1.54 226 1.54
 275  0.438  0.062  0.437- 102 1.54 338 1.54 466 1.54 227 1.54
 276  0.437  0.063  0.687- 467 1.54 339 1.54 103 1.54 228 1.54
 277  0.438  0.063  0.937- 464 1.54 340 1.54 229 1.54 100 1.54
 278  0.438  0.312  0.187- 230 1.54 341 1.54 105 1.54 469 1.54
 279  0.438  0.313  0.437- 106 1.54 231 1.54 342 1.54 470 1.55
 280  0.438  0.313  0.687- 107 1.54 343 1.54 471 1.54 232 1.56
 281  0.438  0.313  0.937- 233 1.54 468 1.54 344 1.54 104 1.54
 282  0.438  0.562  0.188- 234 1.54 109 1.54 345 1.54 473 1.54
 283  0.438  0.563  0.687- 110 1.53 347 1.55 236 1.55 475 1.55
 284  0.437  0.563  0.938- 237 1.54 472 1.54 348 1.54 108 1.54
 285  0.438  0.812  0.188- 477 1.54 112 1.54 349 1.54 238 1.54
 286  0.437  0.812  0.438- 113 1.54 478 1.54 350 1.54 239 1.54
 287  0.437  0.813  0.688- 479 1.54 114 1.54 240 1.54 351 1.54
 288  0.437  0.813  0.938- 476 1.54 352 1.54 241 1.54 111 1.54
 289  0.688  0.062  0.187- 481 1.54 353 1.54 116 1.54 242 1.54
 290  0.688  0.062  0.437- 117 1.54 354 1.54 482 1.54 243 1.54
 291  0.687  0.063  0.687- 483 1.54 355 1.54 118 1.54 244 1.54
 292  0.688  0.063  0.937- 480 1.53 356 1.54 245 1.54 115 1.54
 293  0.688  0.312  0.187- 246 1.54 357 1.54 120 1.54 485 1.54
 294  0.688  0.312  0.437- 121 1.53 247 1.54 358 1.54 486 1.56
 295  0.687  0.313  0.687- 248 1.54 359 1.54 487 1.54 122 1.54
 296  0.688  0.313  0.937- 249 1.54 484 1.54 360 1.54 119 1.54
 297  0.688  0.562  0.188- 250 1.54 124 1.54 361 1.54 489 1.54
 298  0.686  0.562  0.439- 125 1.53 362 1.54 251 1.55 490 1.56
 299  0.687  0.563  0.689- 126 1.53 252 1.54 363 1.54 491 1.55
 300  0.687  0.563  0.938- 253 1.54 488 1.54 364 1.54 123 1.54
 301  0.688  0.812  0.188- 493 1.54 365 1.54 128 1.54 254 1.54
 302  0.687  0.812  0.438- 129 1.54 494 1.54 255 1.54 366 1.54
 303  0.687  0.813  0.688- 367 1.54 495 1.54 130 1.54 256 1.54
 304  0.687  0.813  0.938- 492 1.54 368 1.54 257 1.54 127 1.54
 305  0.938  0.062  0.187- 497 1.54 369 1.54  69 1.54 194 1.54
 306  0.938  0.062  0.437-  70 1.54 498 1.54 370 1.54 195 1.54
 307  0.937  0.063  0.687- 499 1.54 371 1.54 196 1.54  71 1.54
 308  0.938  0.063  0.937- 496 1.53 372 1.54 197 1.54  68 1.54
 309  0.938  0.312  0.187- 198 1.54  73 1.54 373 1.54 501 1.54
 310  0.938  0.312  0.437-  74 1.54 199 1.54 374 1.54 502 1.55
 311  0.937  0.313  0.687- 200 1.54  75 1.54 375 1.54 503 1.54
 312  0.938  0.313  0.937- 201 1.54 500 1.54 376 1.54  72 1.54
 313  0.938  0.562  0.188- 202 1.54  77 1.54 377 1.54 505 1.54
 314  0.937  0.562  0.438-  78 1.54 203 1.54 378 1.54 506 1.55
 315  0.937  0.563  0.688- 204 1.54  79 1.54 507 1.54 379 1.54
 316  0.937  0.563  0.938- 205 1.54 504 1.54 380 1.54  76 1.54
 317  0.938  0.812  0.188- 509 1.54  81 1.54 381 1.54 206 1.54
 318  0.937  0.812  0.438-  82 1.54 510 1.54 207 1.54 382 1.54
 319  0.937  0.813  0.688- 511 1.54  83 1.54 383 1.54 208 1.54
 320  0.937  0.813  0.938- 508 1.54 384 1.54 209 1.54  80 1.54
 321  0.126  0.999  0.125- 397 1.53 258 1.54   5 1.54 143 1.54
 322  0.125  1.000  0.375-   6 1.54 398 1.54 259 1.54 144 1.54
 323  0.125  0.000  0.625-   7 1.54 399 1.54 260 1.54 145 1.54
 324  0.125  0.000  0.875- 400 1.53 261 1.54   8 1.54 146 1.54
 325  0.126  0.250  0.124- 385 1.54 262 1.54 131 1.54   9 1.54
 326  0.126  0.250  0.374-  10 1.54 132 1.54 263 1.54 386 1.54
 327  0.125  0.251  0.624-  11 1.54 133 1.54 387 1.54 264 1.54
 328  0.125  0.251  0.874- 388 1.54 134 1.54 265 1.54  12 1.54
 329  0.125  0.500  0.125- 135 1.54 266 1.54  13 1.54 389 1.54
 330  0.125  0.500  0.375- 136 1.54  14 1.54 267 1.54 390 1.54
 331  0.125  0.501  0.625- 137 1.54  15 1.54 268 1.54 391 1.54
 332  0.125  0.500  0.875- 138 1.54 392 1.54  16 1.54 269 1.54
 333  0.125  0.749  0.126- 393 1.54 270 1.54 139 1.54  17 1.54
 334  0.125  0.750  0.376-  18 1.54 140 1.54 394 1.54 271 1.54
 335  0.124  0.750  0.626-  19 1.54 141 1.54 395 1.54 272 1.54
 336  0.124  0.750  0.876- 396 1.54 142 1.54 273 1.54  20 1.54
 337  0.375  1.000  0.125- 412 1.54 274 1.54  21 1.54 159 1.54
 338  0.375  1.000  0.375-  22 1.54 413 1.54 275 1.54 160 1.54
 339  0.375  0.001  0.625-  23 1.54 414 1.54 276 1.54 161 1.54
 340  0.375  0.001  0.875- 415 1.54 277 1.54  24 1.54 162 1.54
 341  0.376  0.250  0.124- 401 1.54 278 1.54 147 1.54  25 1.54
 342  0.376  0.250  0.374-  26 1.54 279 1.54 148 1.54 402 1.54
 343  0.375  0.251  0.624-  27 1.54 149 1.54 403 1.54 280 1.54
 344  0.375  0.251  0.874- 404 1.54 281 1.54 150 1.54  28 1.54
 345  0.375  0.500  0.125- 151 1.54 282 1.54 405 1.54  29 1.54
 346  0.375  0.500  0.376-   2 1.49 152 1.54  30 1.55 406 1.55
 347  0.375  0.500  0.624-   4 1.50  31 1.53 283 1.55 153 1.55
 348  0.375  0.501  0.875- 154 1.54 407 1.54  32 1.54 284 1.54
 349  0.375  0.750  0.126- 408 1.54 285 1.54 155 1.54  33 1.54
 350  0.375  0.749  0.376-  34 1.54 156 1.54 286 1.54 409 1.54
 351  0.375  0.750  0.626- 157 1.54  35 1.54 287 1.54 410 1.55
 352  0.374  0.751  0.876- 411 1.54 158 1.54 288 1.54  36 1.54
 353  0.625  0.999  0.125- 428 1.53 289 1.54  37 1.54 174 1.54
 354  0.625  0.999  0.375-  38 1.54 429 1.54 290 1.54 175 1.54
 355  0.625  0.001  0.625-  39 1.54 430 1.54 291 1.54 176 1.54
 356  0.625  0.001  0.875- 431 1.54 292 1.54  40 1.54 177 1.54
 357  0.626  0.249  0.124- 416 1.54 293 1.54 163 1.54  41 1.54
 358  0.626  0.249  0.374- 164 1.54  42 1.54 417 1.54 294 1.54
 359  0.625  0.251  0.624-  43 1.54 295 1.54 165 1.54 418 1.54
 360  0.625  0.251  0.874- 419 1.54 296 1.54 166 1.54  44 1.55
 361  0.625  0.499  0.125- 167 1.54 297 1.54  45 1.54 420 1.54
 362  0.624  0.499  0.376-   3 1.49  46 1.53 298 1.54 421 1.56
 363  0.624  0.504  0.625-   1 1.47 299 1.54 168 1.54 422 1.56
 364  0.625  0.501  0.875- 169 1.54  47 1.54 300 1.54 423 1.54
 365  0.625  0.749  0.126- 424 1.54 301 1.54 170 1.54  48 1.54
 366  0.625  0.749  0.376- 425 1.54 302 1.54  49 1.54 171 1.55
 367  0.624  0.751  0.626- 303 1.54  50 1.54 172 1.54 426 1.55
 368  0.624  0.751  0.876- 427 1.54 304 1.54 173 1.54  51 1.54
 369  0.876  0.999  0.125- 444 1.53 305 1.54  52 1.54 190 1.54
 370  0.875  0.999  0.375-  53 1.54 445 1.54 306 1.54 191 1.54
 371  0.875  0.000  0.625-  54 1.54 446 1.54 307 1.54 192 1.54
 372  0.875  0.000  0.875- 447 1.54 308 1.54  55 1.54 193 1.54
 373  0.876  0.249  0.124- 432 1.54 309 1.54 178 1.54  56 1.54
 374  0.876  0.249  0.374-  57 1.54 179 1.54 310 1.54 433 1.54
 375  0.875  0.251  0.624- 180 1.54  58 1.54 311 1.54 434 1.54
 376  0.875  0.250  0.874- 435 1.54 181 1.54 312 1.54  59 1.54
 377  0.875  0.499  0.125- 182 1.54 436 1.54 313 1.54  60 1.54
 378  0.875  0.499  0.375- 183 1.54  61 1.54 314 1.54 437 1.55
 379  0.874  0.500  0.625- 184 1.54  62 1.54 315 1.54 438 1.55
 380  0.875  0.500  0.875- 185 1.54  63 1.54 316 1.54 439 1.54
 381  0.875  0.749  0.126- 440 1.54 317 1.54 186 1.54  64 1.54
 382  0.875  0.749  0.376-  65 1.54 187 1.54 441 1.54 318 1.54
 383  0.874  0.751  0.626-  66 1.54 188 1.54 319 1.54 442 1.54
 384  0.874  0.750  0.876- 443 1.54 320 1.54 189 1.54  67 1.54
 385  0.188  0.187  0.062- 325 1.54 448 1.54  88 1.54 210 1.54
 386  0.188  0.187  0.312- 211 1.54 449 1.54  89 1.54 326 1.54
 387  0.187  0.188  0.562-  90 1.54 212 1.54 450 1.54 327 1.54
 388  0.188  0.188  0.812- 328 1.54  91 1.54 451 1.54 213 1.54
 389  0.188  0.437  0.062-  92 1.54 452 1.54 329 1.54 214 1.54
 390  0.188  0.437  0.312-  93 1.54 215 1.54 453 1.54 330 1.54
 391  0.187  0.438  0.562- 216 1.54  94 1.54 454 1.54 331 1.54
 392  0.187  0.438  0.812-  95 1.54 332 1.54 217 1.54 455 1.54
 393  0.187  0.687  0.063- 333 1.54  96 1.54 456 1.54 218 1.54
 394  0.187  0.687  0.313- 219 1.54  97 1.54 334 1.54 457 1.54
 395  0.187  0.688  0.563- 220 1.54  98 1.54 335 1.54 458 1.54
 396  0.187  0.688  0.813- 336 1.54  99 1.54 221 1.54 459 1.54
 397  0.188  0.937  0.063- 321 1.53 460 1.54 222 1.54  84 1.54
 398  0.188  0.937  0.313- 223 1.54 322 1.54 461 1.54  85 1.54
 399  0.187  0.938  0.563- 224 1.54 323 1.54 462 1.54  86 1.54
 400  0.187  0.938  0.813- 324 1.53 463 1.54 225 1.54  87 1.54
 401  0.438  0.187  0.062- 341 1.54 464 1.54 104 1.54 226 1.54
 402  0.438  0.187  0.312- 227 1.54 465 1.54 105 1.54 342 1.54
 403  0.438  0.188  0.562- 228 1.54 106 1.54 466 1.54 343 1.54
 404  0.438  0.188  0.812- 344 1.54 107 1.54 467 1.54 229 1.54
 405  0.438  0.437  0.062- 108 1.54 468 1.54 345 1.54 230 1.54
 406  0.438  0.437  0.313- 109 1.54 231 1.54 469 1.54 346 1.55
 407  0.437  0.438  0.812- 110 1.54 348 1.54 471 1.54 233 1.54
 408  0.437  0.687  0.063- 349 1.54 472 1.54 111 1.54 234 1.54
 409  0.438  0.687  0.313- 112 1.54 473 1.54 350 1.54 235 1.56
 410  0.438  0.687  0.563- 113 1.53 474 1.55 236 1.55 351 1.55
 411  0.437  0.688  0.813- 352 1.54 114 1.54 237 1.54 475 1.54
 412  0.438  0.937  0.063- 337 1.54 476 1.54 238 1.54 100 1.54
 413  0.438  0.937  0.313- 239 1.54 338 1.54 477 1.54 101 1.54
 414  0.437  0.938  0.563- 240 1.54 339 1.54 478 1.54 102 1.54
 415  0.437  0.938  0.813- 340 1.54 479 1.54 241 1.54 103 1.54
 416  0.688  0.187  0.062- 357 1.54 480 1.54 119 1.54 242 1.54
 417  0.688  0.187  0.312- 243 1.54 481 1.54 120 1.54 358 1.54
 418  0.688  0.188  0.562- 244 1.54 121 1.54 482 1.54 359 1.54
 419  0.688  0.188  0.812- 360 1.54 483 1.54 122 1.54 245 1.54
 420  0.688  0.437  0.062- 123 1.54 484 1.54 361 1.54 246 1.54
 421  0.688  0.437  0.312- 124 1.53 247 1.54 485 1.54 362 1.56
 422  0.686  0.439  0.562- 125 1.53 486 1.54 248 1.55 363 1.56
 423  0.687  0.438  0.812- 126 1.54 364 1.54 249 1.54 487 1.54
 424  0.687  0.687  0.063- 365 1.54 488 1.54 127 1.54 250 1.54
 425  0.687  0.687  0.313- 251 1.54 489 1.54 366 1.54 128 1.54
 426  0.687  0.689  0.563- 129 1.53 252 1.54 490 1.54 367 1.55
 427  0.687  0.688  0.813- 491 1.54 368 1.54 130 1.54 253 1.54
 428  0.688  0.937  0.063- 353 1.53 492 1.54 254 1.54 115 1.54
 429  0.688  0.937  0.313- 255 1.54 354 1.54 493 1.54 116 1.54
 430  0.687  0.938  0.563- 256 1.54 355 1.54 494 1.54 117 1.54
 431  0.687  0.938  0.813- 356 1.54 495 1.54 257 1.54 118 1.54
 432  0.938  0.187  0.062- 373 1.54 496 1.54  72 1.54 194 1.54
 433  0.938  0.187  0.312- 195 1.54  73 1.54 497 1.54 374 1.54
 434  0.938  0.188  0.562- 196 1.54  74 1.54 498 1.54 375 1.54
 435  0.938  0.188  0.812- 376 1.54  75 1.54 499 1.54 197 1.54
 436  0.938  0.437  0.062-  76 1.54 377 1.54 500 1.54 198 1.54
 437  0.938  0.437  0.312-  77 1.54 199 1.54 501 1.54 378 1.55
 438  0.937  0.438  0.562-  78 1.54 200 1.54 502 1.54 379 1.55
 439  0.937  0.438  0.812-  79 1.54 380 1.54 201 1.54 503 1.54
 440  0.937  0.687  0.063- 381 1.54 504 1.54 202 1.54  80 1.54
 441  0.937  0.687  0.313- 203 1.54  81 1.54 505 1.54 382 1.54
 442  0.937  0.688  0.563- 204 1.54  82 1.54 383 1.54 506 1.54
 443  0.937  0.688  0.813- 384 1.54  83 1.54 507 1.54 205 1.54
 444  0.938  0.937  0.063- 369 1.53 508 1.54 206 1.54  68 1.54
 445  0.938  0.937  0.313- 207 1.54 370 1.54 509 1.54  69 1.54
 446  0.937  0.938  0.563- 208 1.54 371 1.54 510 1.54  70 1.54
 447  0.937  0.938  0.813- 372 1.54 511 1.54 209 1.54  71 1.54
 448  0.126  0.125  0.999- 261 1.53 385 1.54   5 1.54 134 1.54
 449  0.126  0.124  0.250- 258 1.54 386 1.54 131 1.54   6 1.54
 450  0.125  0.125  0.500- 132 1.54 387 1.54   7 1.54 259 1.54
 451  0.125  0.126  0.749- 260 1.54 388 1.54 133 1.54   8 1.54
 452  0.125  0.375  1.000-   9 1.54 265 1.54 389 1.54 138 1.54
 453  0.126  0.374  0.250-  10 1.54 135 1.54 390 1.54 262 1.54
 454  0.125  0.375  0.500- 136 1.54  11 1.54 391 1.54 263 1.54
 455  0.125  0.376  0.750-  12 1.54 137 1.54 264 1.54 392 1.54
 456  0.125  0.625  0.000-  13 1.54 269 1.54 393 1.54 142 1.54
 457  0.125  0.624  0.251-  14 1.54 139 1.54 266 1.54 394 1.54
 458  0.125  0.625  0.501- 140 1.54  15 1.54 395 1.54 267 1.54
 459  0.124  0.626  0.750-  16 1.54 141 1.54 268 1.54 396 1.54
 460  0.125  0.875  0.000- 273 1.53 397 1.54  17 1.54 146 1.54
 461  0.125  0.874  0.251- 270 1.54 143 1.54 398 1.54  18 1.54
 462  0.125  0.875  0.500- 144 1.54 271 1.54  19 1.54 399 1.54
 463  0.124  0.876  0.750- 272 1.54 145 1.54 400 1.54  20 1.54
 464  0.375  0.125  1.000- 277 1.54 401 1.54  21 1.54 150 1.54
 465  0.376  0.124  0.250- 274 1.54 402 1.54 147 1.54  22 1.54
 466  0.375  0.125  0.500- 148 1.54 403 1.54 275 1.54  23 1.54
 467  0.375  0.126  0.750- 276 1.54 404 1.54 149 1.54  24 1.54
 468  0.375  0.375  1.000-  25 1.54 281 1.54 405 1.54 154 1.54
 469  0.376  0.374  0.250-  26 1.54 406 1.54 151 1.54 278 1.54
 470  0.375  0.376  0.500-   4 1.49 152 1.54  27 1.55 279 1.55
 471  0.375  0.376  0.749-  28 1.54 153 1.54 407 1.54 280 1.54
 472  0.375  0.625  0.001-  29 1.54 284 1.54 408 1.54 158 1.54
 473  0.375  0.624  0.251-  30 1.54 155 1.54 282 1.54 409 1.54
 474  0.375  0.624  0.500-   2 1.50  31 1.53 410 1.55 156 1.55
 475  0.375  0.626  0.750- 157 1.54  32 1.54 411 1.54 283 1.55
 476  0.375  0.875  0.001- 288 1.54 412 1.54  33 1.54 162 1.54
 477  0.375  0.874  0.251- 285 1.54 413 1.54 159 1.54  34 1.54
 478  0.375  0.875  0.501- 160 1.54 286 1.54  35 1.54 414 1.54
 479  0.374  0.876  0.751- 287 1.54 161 1.54 415 1.54  36 1.54
 480  0.625  0.125  0.999- 292 1.53 416 1.54  37 1.54 166 1.54
 481  0.626  0.124  0.249- 289 1.54 417 1.54 163 1.54  38 1.54
 482  0.625  0.125  0.499- 164 1.54 418 1.54  39 1.54 290 1.54
 483  0.625  0.126  0.749- 291 1.54 419 1.54 165 1.54  40 1.54
 484  0.625  0.375  0.999-  41 1.54 296 1.54 420 1.54 169 1.54
 485  0.626  0.374  0.249- 167 1.54  42 1.54 293 1.54 421 1.54
 486  0.624  0.376  0.499-   3 1.49  43 1.53 422 1.54 294 1.56
 487  0.625  0.376  0.749- 295 1.54 423 1.54  44 1.54 168 1.55
 488  0.625  0.625  0.001-  45 1.54 300 1.54 424 1.54 173 1.54
 489  0.625  0.624  0.251-  46 1.54 425 1.54 170 1.54 297 1.54
 490  0.624  0.625  0.504-   1 1.47 426 1.54 171 1.54 298 1.56
 491  0.624  0.626  0.751- 427 1.54  47 1.54 172 1.54 299 1.55
 492  0.625  0.875  0.001- 304 1.54 428 1.54  48 1.54 177 1.54
 493  0.625  0.874  0.251- 301 1.54 429 1.54 174 1.54  49 1.55
 494  0.625  0.875  0.501- 175 1.54  50 1.54 430 1.54 302 1.54
 495  0.624  0.876  0.751- 303 1.54 431 1.54 176 1.54  51 1.54
 496  0.876  0.125  0.999- 308 1.53 432 1.54  52 1.54 181 1.54
 497  0.876  0.124  0.249- 305 1.54 433 1.54 178 1.54  53 1.54
 498  0.875  0.125  0.499- 179 1.54 306 1.54 434 1.54  54 1.54
 499  0.875  0.126  0.749- 307 1.54 435 1.54 180 1.54  55 1.54
 500  0.875  0.375  0.999-  56 1.54 312 1.54 436 1.54 185 1.54
 501  0.876  0.374  0.249-  57 1.54 182 1.54 437 1.54 309 1.54
 502  0.875  0.375  0.499- 183 1.54  58 1.54 438 1.54 310 1.55
 503  0.875  0.376  0.749-  59 1.54 184 1.54 311 1.54 439 1.54
 504  0.875  0.625  0.000-  60 1.54 316 1.54 440 1.54 189 1.54
 505  0.875  0.624  0.251- 186 1.54  61 1.54 441 1.54 313 1.54
 506  0.874  0.625  0.500- 187 1.54  62 1.54 442 1.54 314 1.55
 507  0.874  0.626  0.751-  63 1.54 188 1.54 443 1.54 315 1.54
 508  0.875  0.875  0.000- 320 1.54 444 1.54  64 1.54 193 1.54
 509  0.875  0.874  0.250- 317 1.54 190 1.54 445 1.54  65 1.54
 510  0.875  0.875  0.500- 191 1.54  66 1.54 446 1.54 318 1.54
 511  0.874  0.876  0.750- 319 1.54 447 1.54 192 1.54  67 1.54
 
  LATTYP: Found a trigonal (rhomboedric) cell.
 ALAT       =    14.2291014062
 COS(alpha) =     0.0003772782
  
  Lattice vectors:
  
 A1 = (  14.2291009000,   0.0026839118,   0.0026839118)
 A2 = (   0.0026839118,  14.2291009000,   0.0026839118)
 A3 = (   0.0026839118,   0.0026839118,  14.2291009000)


Analysis of symmetry for initial positions (statically):
=====================================================================
 Subroutine PRICEL returns:
 Original cell was already a primitive cell.
 

 Routine SETGRP: Setting up the symmetry group for a 
 trigonal (rhombohedral) supercell.


 Subroutine GETGRP returns: Found  2 space group operations
 (whereof  2 operations were pure point group operations)
 out of a pool of 12 trial point group operations.


The static configuration has the point symmetry C_1h.


Analysis of symmetry for dynamics (positions and initial velocities):
=====================================================================
 Subroutine PRICEL returns:
 Original cell was already a primitive cell.
 

 Routine SETGRP: Setting up the symmetry group for a 
 trigonal (rhombohedral) supercell.


 Subroutine GETGRP returns: Found  2 space group operations
 (whereof  2 operations were pure point group operations)
 out of a pool of 12 trial point group operations.


The dynamic configuration has the point symmetry C_1h.


Analysis of structural, dynamic, and magnetic symmetry:
=====================================================================
 Subroutine PRICEL returns:
 Original cell was already a primitive cell.
 

 Routine SETGRP: Setting up the symmetry group for a 
 trigonal (rhombohedral) supercell.


 Subroutine GETGRP returns: Found  2 space group operations
 (whereof  2 operations were pure point group operations)
 out of a pool of 12 trial point group operations.


The magnetic configuration has the point symmetry C_1h.


 Subroutine INISYM returns: Found  2 space group operations
 (whereof  2 operations are pure point group operations),
 and found     1 'primitive' translations

 
 
 KPOINTS: K-Mesh Generated with KP-Resolved Value 

Automatic generation of k-mesh.
Space group operators:
 irot       det(A)        alpha          n_x          n_y          n_z        tau_x        tau_y        tau_z
    1     1.000000     0.000000     1.000000     0.000000     0.000000     0.000000     0.000000     0.000000
    2    -1.000000   180.000000    -0.000000     0.707107    -0.707107     0.000000     0.000000     0.000000
 
 Subroutine IBZKPT returns following result:
 ===========================================
 
 Found      1 irreducible k-points:
 
 Following reciprocal coordinates:
            Coordinates               Weight
  0.000000  0.000000  0.000000      1.000000
 
 Following cartesian coordinates:
            Coordinates               Weight
  0.000000  0.000000  0.000000      1.000000
 


--------------------------------------------------------------------------------------------------------




 Dimension of arrays:
   k-points           NKPTS =      1   k-points in BZ     NKDIM =      1   number of bands    NBANDS=   1281
   number of dos      NEDOS =    301   number of ions     NIONS =    511
   non local maximal  LDIM  =      4   non local SUM 2l+1 LMDIM =      8
   total plane-waves  NPLWV = 512000
   max r-space proj   IRMAX =   1493   max aug-charges    IRDMAX=   2386
   dimension x,y,z NGX =    80 NGY =   80 NGZ =   80
   dimension x,y,z NGXF=   160 NGYF=  160 NGZF=  160
   support grid    NGXF=   160 NGYF=  160 NGZF=  160
   ions per type =               1 510
   NGX,Y,Z   is equivalent  to a cutoff of   9.35,  9.35,  9.35 a.u.
   NGXF,Y,Z  is equivalent  to a cutoff of  18.69, 18.69, 18.69 a.u.

 SYSTEM =  unknown system                          
 POSCAR =  NC510                                   

 Startparameter for this run:
   NWRITE =      2    write-flag & timer
   PREC   = normal    normal or accurate (medium, high low for compatibility)
   ISTART =      1    job   : 0-new  1-cont  2-samecut
   ICHARG =      0    charge: 1-file 2-atom 10-const
   ISPIN  =      2    spin polarized calculation?
   LNONCOLLINEAR =      F non collinear calculations
   LSORBIT =      F    spin-orbit coupling
   INIWAV =      1    electr: 0-lowe 1-rand  2-diag
   LASPH  =      F    aspherical Exc in radial PAW
   METAGGA=      F    non-selfconsistent MetaGGA calc.

 Electronic Relaxation 1
   ENCUT  =  520.0 eV  38.22 Ry    6.18 a.u.  26.46 26.46 26.46*2*pi/ulx,y,z
   ENINI  =  520.0     initial cutoff
   ENAUG  =  644.9 eV  augmentation charge cutoff
   NELM   =     50;   NELMIN=  2; NELMDL=  0     # of ELM steps 
   EDIFF  = 0.1E-05   stopping-criterion for ELM
   LREAL  =      T    real-space projection
   NLSPLINE    = F    spline interpolate recip. space projectors
   LCOMPAT=      F    compatible to vasp.4.4
   GGA_COMPAT  = T    GGA compatible to vasp.4.4-vasp.4.6
   LMAXPAW     = -100 max onsite density
   LMAXMIX     =    2 max onsite mixed and CHGCAR
   VOSKOWN=      0    Vosko Wilk Nusair interpolation
   ROPT   =   -0.00050  -0.00050
 Ionic relaxation
   EDIFFG = -.1E-01   stopping-criterion for IOM
   NSW    =      0    number of steps for IOM
   NBLOCK =      1;   KBLOCK =      1    inner block; outer block 
   IBRION =     -1    ionic relax: 0-MD 1-quasi-New 2-CG
   NFREE  =      0    steps in history (QN), initial steepest desc. (CG)
   ISIF   =      3    stress and relaxation
   IWAVPR =     10    prediction:  0-non 1-charg 2-wave 3-comb
   ISYM   =      2    0-nonsym 1-usesym 2-fastsym
   LCORR  =      T    Harris-Foulkes like correction to forces

   POTIM  = 0.5000    time-step for ionic-motion
   TEIN   =    0.0    initial temperature
   TEBEG  =    0.0;   TEEND  =   0.0 temperature during run
   SMASS  =  -3.00    Nose mass-parameter (am)
   estimated Nose-frequenzy (Omega)   =  0.10E-29 period in steps =****** mass=  -0.463E-26a.u.
   SCALEE = 1.0000    scale energy and forces
   NPACO  =    256;   APACO  = 16.0  distance and # of slots for P.C.
   PSTRESS=    0.0 pullay stress

  Mass of Ions in am
   POMASS =  14.00 12.01
  Ionic Valenz
   ZVAL   =   5.00  4.00
  Atomic Wigner-Seitz radii
   RWIGS  =  -1.00 -1.00
  virtual crystal weights 
   VCA    =   1.00  1.00
   NELECT =    2046.0000    total number of electrons
   NUPDOWN=       2.0000    fix difference up-down

 DOS related values:
   EMIN   =  10.00;   EMAX   =-10.00  energy-range for DOS
   EFERMI =   0.00
   ISMEAR =     0;   SIGMA  =   0.05  broadening in eV -4-tet -1-fermi 0-gaus

 Electronic relaxation 2 (details)
   IALGO  =     68    algorithm
   LDIAG  =      T    sub-space diagonalisation (order eigenvalues)
   LSUBROT=      F    optimize rotation matrix (better conditioning)
   TURBO    =      0    0=normal 1=particle mesh
   IRESTART =      0    0=no restart 2=restart with 2 vectors
   NREBOOT  =      0    no. of reboots
   NMIN     =      0    reboot dimension
   EREF     =   0.00    reference energy to select bands
   IMIX   =      4    mixing-type and parameters
     AMIX     =   0.40;   BMIX     =  1.00
     AMIX_MAG =   1.60;   BMIX_MAG =  1.00
     AMIN     =   0.10
     WC   =   100.;   INIMIX=   1;  MIXPRE=   1;  MAXMIX= -45

 Intra band minimization:
   WEIMIN = 0.0000     energy-eigenvalue tresh-hold
   EBREAK =  0.20E-09  absolut break condition
   DEPER  =   0.30     relativ break condition  

   TIME   =   0.40     timestep for ELM

  volume/ion in A,a.u.               =       5.64        38.05
  Fermi-wavevector in a.u.,A,eV,Ry     =   1.460604  2.760142 29.026195  2.133365
  Thomas-Fermi vector in A             =   2.577034
 
 Write flags
   LWAVE        =      T    write WAVECAR
   LDOWNSAMPLE  =      F    k-point downsampling of WAVECAR
   LCHARG       =      T    write CHGCAR
   LVTOT        =      F    write LOCPOT, total local potential
   LVHAR        =      F    write LOCPOT, Hartree potential only
   LELF         =      F    write electronic localiz. function (ELF)
   LORBIT       =      0    0 simple, 1 ext, 2 COOP (PROOUT), +10 PAW based schemes


 Dipole corrections
   LMONO  =      F    monopole corrections only (constant potential shift)
   LDIPOL =      F    correct potential (dipole corrections)
   IDIPOL =      0    1-x, 2-y, 3-z, 4-all directions 
   EPSILON=  1.0000000 bulk dielectric constant

 Exchange correlation treatment:
   GGA     =    PS    GGA type
   LEXCH   =    14    internal setting for exchange type
   VOSKOWN=      0    Vosko Wilk Nusair interpolation
   LHFCALC =     F    Hartree Fock is set to
   LHFONE  =     F    Hartree Fock one center treatment
   AEXX    =    0.0000 exact exchange contribution

 Linear response parameters
   LEPSILON=     F    determine dielectric tensor
   LRPA    =     F    only Hartree local field effects (RPA)
   LNABLA  =     F    use nabla operator in PAW spheres
   LVEL    =     F    velocity operator in full k-point grid
   LINTERFAST=   F  fast interpolation
   KINTER  =     0    interpolate to denser k-point grid
   CSHIFT  =0.1000    complex shift for real part using Kramers Kronig
   OMEGAMAX=  -1.0    maximum frequency
   DEG_THRESHOLD= 0.2000000E-02 threshold for treating states as degnerate
   RTIME   =   -0.100 relaxation time in fs
  (WPLASMAI=    0.000 imaginary part of plasma frequency in eV, 0.658/RTIME)
   DFIELD  = 0.0000000 0.0000000 0.0000000 field for delta impulse in time
 
 Orbital magnetization related:
   ORBITALMAG=     F  switch on orbital magnetization
   LCHIMAG   =     F  perturbation theory with respect to B field
   DQ        =  0.001000  dq finite difference perturbation B field
   LLRAUG    =     F  two centre corrections for induced B field



--------------------------------------------------------------------------------------------------------


 Static calculation
 charge density and potential will be updated during run
 spin polarized calculation
 RMM-DIIS sequential band-by-band and
  variant of blocked Davidson during initial phase
 perform sub-space diagonalisation
    before iterative eigenvector-optimisation
 modified Broyden-mixing scheme, WC =      100.0
 initial mixing is a Kerker type mixing with AMIX =  0.4000 and BMIX =      1.0000
 Hartree-type preconditioning will be used
 using additional bands          258
 real space projection scheme for non local part
 use partial core corrections
 calculate Harris-corrections to forces 
   (improved forces if not selfconsistent)
 use gradient corrections 
 use of overlap-Matrix (Vanderbilt PP)
 Gauss-broadening in eV      SIGMA  =   0.05


--------------------------------------------------------------------------------------------------------


  energy-cutoff  :      520.00
  volume of cell :     2880.93
      direct lattice vectors                 reciprocal lattice vectors
    14.229100900  0.002683912  0.002683912     0.070278514 -0.000013254 -0.000013254
     0.002683912 14.229100900  0.002683912    -0.000013254  0.070278514 -0.000013254
     0.002683912  0.002683912 14.229100900    -0.000013254 -0.000013254  0.070278514

  length of vectors
    14.229101406 14.229101406 14.229101406     0.070278517  0.070278517  0.070278517


 
 old parameters found on file WAVECAR:
  energy-cutoff  :      520.00
  volume of cell :     2880.93
      direct lattice vectors                 reciprocal lattice vectors
    14.229100916  0.002683912  0.002683912     0.070278514 -0.000013254 -0.000013254
     0.002683912 14.229100916  0.002683912    -0.000013254  0.070278514 -0.000013254
     0.002683912  0.002683912 14.229100916    -0.000013254 -0.000013254  0.070278514

  length of vectors

 
 k-points in units of 2pi/SCALE and weight: K-Mesh Generated with KP-Resolved Value 
   0.00000000  0.00000000  0.00000000       1.000
 
 k-points in reciprocal lattice and weights: K-Mesh Generated with KP-Resolved Value 
   0.00000000  0.00000000  0.00000000       1.000
 
 position of ions in fractional coordinates (direct lattice) 
   0.56715250  0.56902410  0.56902410
   0.43311224  0.56443353  0.43432419
   0.56541019  0.43254739  0.43254739
   0.43311224  0.43432419  0.56443353
   0.06314411  0.06215127  0.06215127
   0.06318673  0.06184138  0.31217544
   0.06245061  0.06274599  0.56214918
   0.06248217  0.06310160  0.81212489
   0.06318673  0.31217544  0.06184138
   0.06316160  0.31187489  0.31187489
   0.06250589  0.31282817  0.56185362
   0.06247611  0.31311363  0.81181068
   0.06245061  0.56214918  0.06274599
   0.06250589  0.56185362  0.31282817
   0.06189683  0.56277987  0.56277987
   0.06186712  0.56307328  0.81276582
   0.06248217  0.81212489  0.06310160
   0.06247611  0.81181068  0.31311363
   0.06186712  0.81276582  0.56307328
   0.06187052  0.81306202  0.81306202
   0.31311052  0.06227784  0.06227784
   0.31314208  0.06192653  0.31228067
   0.31252647  0.06293286  0.56224466
   0.31247323  0.06322050  0.81223363
   0.31314208  0.31228067  0.06192653
   0.31324540  0.31205046  0.31205046
   0.31204790  0.31245299  0.56158346
   0.31256358  0.31329256  0.81187556
   0.31252647  0.56224466  0.06293286
   0.31204790  0.56158346  0.31245299
   0.31227672  0.56270350  0.56270350
   0.31206847  0.56316378  0.81263700
   0.31247323  0.81223363  0.06322050
   0.31256358  0.81187556  0.31329256
   0.31206847  0.81263700  0.56316378
   0.31184839  0.81314373  0.81314373
   0.56309921  0.06211370  0.06211370
   0.56316219  0.06185383  0.31218934
   0.56249511  0.06291644  0.56216525
   0.56244496  0.06322278  0.81217100
   0.56316219  0.31218934  0.06185383
   0.56296072  0.31108042  0.31108042
   0.56225707  0.31342619  0.56146578
   0.56238336  0.31348168  0.81150965
   0.56249511  0.56216525  0.06291644
   0.56225707  0.56146578  0.31342619
   0.56185938  0.56326649  0.81288364
   0.56244496  0.81217100  0.06322278
   0.56238336  0.81150965  0.31348168
   0.56185938  0.81288364  0.56326649
   0.56181720  0.81344878  0.81344878
   0.81314560  0.06206047  0.06206047
   0.81319908  0.06170185  0.31206452
   0.81249565  0.06275105  0.56206921
   0.81244564  0.06308599  0.81204922
   0.81319908  0.31206452  0.06170185
   0.81326193  0.31175843  0.31175843
   0.81215307  0.31300384  0.56167867
   0.81238020  0.31308183  0.81167930
   0.81249565  0.56206921  0.06275105
   0.81215307  0.56167867  0.31300384
   0.81178175  0.56278598  0.56278598
   0.81203908  0.56305120  0.81293251
   0.81244564  0.81204922  0.06308599
   0.81238020  0.81167930  0.31308183
   0.81203908  0.81293251  0.56305120
   0.81185957  0.81306981  0.81306981
   0.00023365  0.99990911  0.99990911
   0.00056752  0.99921084  0.24993636
   0.00001895  0.99995208  0.49992391
   0.99969025  0.00066444  0.74989421
   0.00056752  0.24993636  0.99921084
   0.00092985  0.24924727  0.24924727
   0.00028358  0.25002256  0.49927091
   0.99994277  0.25068361  0.74921449
   0.00001895  0.49992391  0.99995208
   0.00028358  0.49927091  0.25002256
   0.99973754  0.49998795  0.49998795
   0.99945299  0.50064224  0.74994116
   0.99969025  0.74989421  0.00066444
   0.99994277  0.74921449  0.25068361
   0.99945299  0.74994116  0.50064224
   0.99918768  0.75063910  0.75063910
   0.25021513  0.00004756  0.00004756
   0.25054913  0.99934756  0.25007170
   0.25004220  0.00007545  0.50005682
   0.24968430  0.00076210  0.75002953
   0.25054913  0.25007170  0.99934756
   0.25093789  0.24946175  0.24946175
   0.25003415  0.24983594  0.49942984
   0.25005648  0.25085049  0.74928758
   0.25004220  0.50005682  0.00007545
   0.25003415  0.49942984  0.24983594
   0.25006779  0.50005491  0.50005491
   0.24936966  0.50071669  0.75016065
   0.24968430  0.75002953  0.00076210
   0.25005648  0.74928758  0.25085049
   0.24936966  0.75016065  0.50071669
   0.24925287  0.75067340  0.75067340
   0.50019649  0.00001999  0.00001999
   0.50054532  0.99926829  0.25006103
   0.50000307  0.00009313  0.50002195
   0.49965364  0.00083535  0.75000782
   0.50054532  0.25006103  0.99926829
   0.50097130  0.24888148  0.24888148
   0.50028350  0.25042046  0.49918470
   0.49990228  0.25078917  0.74928981
   0.50000307  0.50002195  0.00009313
   0.50028350  0.49918470  0.25042046
   0.49943032  0.50091775  0.74977734
   0.49965364  0.75000782  0.00083535
   0.49990228  0.74928981  0.25078917
   0.49943032  0.74977734  0.50091775
   0.49924501  0.75125423  0.75125423
   0.75021303  0.99988948  0.99988948
   0.75056236  0.99911705  0.24988934
   0.74999292  0.99995780  0.49988185
   0.74967040  0.00070866  0.74988324
   0.75056236  0.24988934  0.99911705
   0.75093102  0.24917277  0.24917277
   0.75047837  0.24976779  0.49904481
   0.74980599  0.25083393  0.74904349
   0.74999292  0.49988185  0.99995780
   0.75047837  0.49904481  0.24976779
   0.74933734  0.50000430  0.50000430
   0.74974067  0.50082594  0.75028039
   0.74967040  0.74988324  0.00070866
   0.74980599  0.74904349  0.25083393
   0.74974067  0.75028039  0.50082594
   0.74919955  0.75072866  0.75072866
   0.06347829  0.18682557  0.18682557
   0.06295369  0.18725138  0.43684303
   0.06246193  0.18816772  0.68679690
   0.06295198  0.18770197  0.93677379
   0.06295369  0.43684303  0.18725138
   0.06252943  0.43727994  0.43727994
   0.06206621  0.43814895  0.68722456
   0.06247563  0.43769681  0.93725233
   0.06246193  0.68679690  0.18816772
   0.06206621  0.68722456  0.43814895
   0.06161184  0.68810655  0.68810655
   0.06206125  0.68766258  0.93811268
   0.06295198  0.93677379  0.18770197
   0.06247563  0.93725233  0.43769681
   0.06206125  0.93811268  0.68766258
   0.06247371  0.93766814  0.93766814
   0.31342873  0.18695318  0.18695318
   0.31295192  0.18738159  0.43689517
   0.31257305  0.18831533  0.68683185
   0.31293456  0.18782745  0.93688592
   0.31295192  0.43689517  0.18738159
   0.31272754  0.43737224  0.43737224
   0.31189157  0.43853352  0.68751946
   0.31253348  0.43782829  0.93730650
   0.31257305  0.68683185  0.18831533
   0.31189157  0.68751946  0.43853352
   0.31177154  0.68807472  0.68807472
   0.31204744  0.68777705  0.93822261
   0.31293456  0.93688592  0.18782745
   0.31253348  0.93730650  0.43782829
   0.31204744  0.93822261  0.68777705
   0.31244822  0.93778437  0.93778437
   0.56342820  0.18655898  0.18655898
   0.56295046  0.18739031  0.43679709
   0.56245885  0.18835752  0.68672908
   0.56290846  0.18783011  0.93672485
   0.56295046  0.43679709  0.18739031
   0.56142564  0.43946909  0.68603285
   0.56249212  0.43776532  0.93725807
   0.56245885  0.68672908  0.18835752
   0.56142564  0.68603285  0.43946909
   0.56175124  0.68926297  0.68926297
   0.56200998  0.68775974  0.93827215
   0.56290846  0.93672485  0.18783011
   0.56249212  0.93725807  0.43776532
   0.56200998  0.93827215  0.68775974
   0.56243041  0.93781065  0.93781065
   0.81348718  0.18670488  0.18670488
   0.81316422  0.18702510  0.43673847
   0.81236656  0.18818405  0.68668369
   0.81293431  0.18763579  0.93666663
   0.81316422  0.43673847  0.18702510
   0.81232836  0.43721811  0.43721811
   0.81185025  0.43820927  0.68713531
   0.81247209  0.43763215  0.93714715
   0.81236656  0.68668369  0.18818405
   0.81185025  0.68713531  0.43820927
   0.81177617  0.68820307  0.68820307
   0.81205834  0.68762320  0.93815660
   0.81293431  0.93666663  0.18763579
   0.81247209  0.93714715  0.43763215
   0.81205834  0.93815660  0.68762320
   0.81245987  0.93762638  0.93762638
   0.00082241  0.12443198  0.12443198
   0.00065668  0.12444294  0.37444939
   0.99994716  0.12551723  0.62443604
   0.00014990  0.12544369  0.87439491
   0.00065668  0.37444939  0.12444294
   0.00042534  0.37451273  0.37451273
   0.99979169  0.37549588  0.62445594
   0.99997699  0.37543221  0.87441767
   0.99994716  0.62443604  0.12551723
   0.99979169  0.62445594  0.37549588
   0.99923943  0.62544166  0.62544166
   0.99943432  0.62541327  0.87546778
   0.00014990  0.87439491  0.12544369
   0.99997699  0.87441767  0.37543221
   0.99943432  0.87546778  0.62541327
   0.99956484  0.87540750  0.87540750
   0.25078505  0.12458886  0.12458886
   0.25064375  0.12459317  0.37459584
   0.24999662  0.12559343  0.62454947
   0.25015679  0.12557845  0.87452014
   0.25064375  0.37459584  0.12459317
   0.25057562  0.37473844  0.37473844
   0.24992035  0.37562498  0.62448149
   0.25000972  0.37557147  0.87455906
   0.24999662  0.62454947  0.12559343
   0.24992035  0.62448149  0.37562498
   0.24949531  0.62536165  0.62536165
   0.24953311  0.62554353  0.87544942
   0.25015679  0.87452014  0.12557845
   0.25000972  0.87455906  0.37557147
   0.24953311  0.87544942  0.62554353
   0.24956343  0.87551257  0.87551257
   0.50080914  0.12436381  0.12436381
   0.50064222  0.12459428  0.37450432
   0.49997303  0.12570723  0.62443598
   0.50010828  0.12554039  0.87453022
   0.50064222  0.37450432  0.12459428
   0.50090526  0.37448379  0.37448379
   0.49924062  0.37691088  0.62291432
   0.49997835  0.37565179  0.87441220
   0.49997303  0.62443598  0.12570723
   0.49924062  0.62291432  0.37691088
   0.50190096  0.62571314  0.62571314
   0.49939427  0.62556420  0.87559877
   0.50010828  0.87453022  0.12554039
   0.49997835  0.87441220  0.37565179
   0.49939427  0.87559877  0.62556420
   0.49954403  0.87568936  0.87568936
   0.75081713  0.12435931  0.12435931
   0.75070676  0.12435532  0.37435089
   0.74991784  0.12552185  0.62433184
   0.75011957  0.12547040  0.87432459
   0.75070676  0.37435089  0.12435532
   0.75044248  0.37438575  0.37438575
   0.74898730  0.37614518  0.62422029
   0.74988517  0.37545337  0.87432184
   0.74991784  0.62433184  0.12552185
   0.74898730  0.62422029  0.37614518
   0.74958463  0.62573742  0.62573742
   0.74946651  0.62544379  0.87558178
   0.75011957  0.87432459  0.12547040
   0.74988517  0.87432184  0.37545337
   0.74946651  0.87558178  0.62544379
   0.74954610  0.87544308  0.87544308
   0.18828716  0.06188637  0.18725225
   0.18782129  0.06229823  0.43724609
   0.18737178  0.06319466  0.68720699
   0.18779592  0.06276422  0.93720414
   0.18832873  0.31192443  0.18696447
   0.18783242  0.31231463  0.43692067
   0.18739894  0.31328040  0.68685885
   0.18783076  0.31277457  0.93688789
   0.18747943  0.56185573  0.18771089
   0.18730256  0.56225913  0.43789968
   0.18681238  0.56317588  0.68779811
   0.18724117  0.56273554  0.93778448
   0.18764932  0.81181575  0.18820612
   0.18709609  0.81240365  0.43820673
   0.18677534  0.81311414  0.68810767
   0.18716035  0.81272545  0.93813249
   0.43826622  0.06184779  0.18723888
   0.43783955  0.06238217  0.43724235
   0.43735749  0.06332176  0.68720872
   0.43777414  0.06278492  0.93725795
   0.43829024  0.31183239  0.18690592
   0.43791705  0.31262020  0.43686836
   0.43763029  0.31324392  0.68694917
   0.43782937  0.31284622  0.93686324
   0.43769803  0.56177998  0.18805548
   0.43767060  0.56289454  0.68686754
   0.43717179  0.56280146  0.93789177
   0.43764516  0.81193349  0.18818863
   0.43719441  0.81219182  0.43828762
   0.43677854  0.81320541  0.68823510
   0.43712886  0.81279149  0.93823136
   0.68830682  0.06168438  0.18709799
   0.68783770  0.06223460  0.43710733
   0.68732200  0.06319228  0.68709604
   0.68777602  0.06270725  0.93708652
   0.68836661  0.31172669  0.18670940
   0.68823078  0.31184277  0.43689761
   0.68704244  0.31345805  0.68652784
   0.68778910  0.31270196  0.93672868
   0.68759216  0.56169574  0.18788090
   0.68581017  0.56163906  0.43894067
   0.68748825  0.56342605  0.68864138
   0.68717001  0.56267745  0.93781236
   0.68754803  0.81165791  0.18819019
   0.68709242  0.81208000  0.43822899
   0.68681470  0.81339929  0.68823628
   0.68714142  0.81270876  0.93817765
   0.93831511  0.06172471  0.18709281
   0.93788117  0.06213479  0.43710892
   0.93732625  0.06313562  0.68708010
   0.93779898  0.06263134  0.93706884
   0.93837596  0.31174940  0.18677114
   0.93779529  0.31224467  0.43682381
   0.93728164  0.31313259  0.68676808
   0.93780568  0.31264042  0.93673001
   0.93755234  0.56174602  0.18782043
   0.93711350  0.56220826  0.43776496
   0.93672021  0.56308367  0.68772896
   0.93722313  0.56261617  0.93777711
   0.93757644  0.81170794  0.18807298
   0.93713592  0.81215559  0.43805348
   0.93676674  0.81310633  0.68803277
   0.93715976  0.81260937  0.93804717
   0.12551009  0.99949215  0.12500600
   0.12535482  0.99951097  0.37500512
   0.12476405  0.00049456  0.62498764
   0.12489191  0.00048308  0.87496693
   0.12586892  0.24954128  0.12433848
   0.12565455  0.24958175  0.37436515
   0.12501533  0.25053672  0.62431937
   0.12521430  0.25051634  0.87426503
   0.12517761  0.49955861  0.12494679
   0.12514990  0.49955557  0.37507742
   0.12457689  0.50050084  0.62498483
   0.12462810  0.50046582  0.87506890
   0.12495790  0.74947159  0.12573757
   0.12478903  0.74952368  0.37572780
   0.12423902  0.75044875  0.62565682
   0.12439837  0.75045161  0.87566596
   0.37547659  0.99954633  0.12507274
   0.37536358  0.99956917  0.37509404
   0.37473564  0.00063047  0.62504607
   0.37485474  0.00057929  0.87504688
   0.37583137  0.24959197  0.12435081
   0.37580222  0.24975770  0.37448653
   0.37508322  0.25075521  0.62421163
   0.37520114  0.25060398  0.87433044
   0.37530578  0.49955007  0.12519337
   0.37540535  0.49982701  0.37551074
   0.37543240  0.50012903  0.62379109
   0.37472972  0.50058959  0.87499893
   0.37494845  0.74953942  0.12583891
   0.37485739  0.74941372  0.37590949
   0.37470203  0.75001289  0.62571019
   0.37435338  0.75051529  0.87576329
   0.62549834  0.99936747  0.12497594
   0.62533699  0.99945408  0.37495981
   0.62470431  0.00057282  0.62493287
   0.62486091  0.00053826  0.87496205
   0.62588290  0.24936609  0.12414786
   0.62568036  0.24940318  0.37411847
   0.62474846  0.25087968  0.62392761
   0.62516646  0.25066244  0.87404916
   0.62524298  0.49937995  0.12509284
   0.62393883  0.49868497  0.37578761
   0.62394650  0.50360951  0.62478932
   0.62462654  0.50053716  0.87498248
   0.62488495  0.74935558  0.12580125
   0.62453065  0.74869292  0.37643195
   0.62440435  0.75101228  0.62606092
   0.62435503  0.75058241  0.87586840
   0.87551476  0.99935228  0.12487981
   0.87535176  0.99936039  0.37487510
   0.87474399  0.00047808  0.62487105
   0.87487732  0.00040506  0.87485634
   0.87588665  0.24937614  0.12416490
   0.87574376  0.24937924  0.37417806
   0.87483478  0.25061640  0.62419455
   0.87515160  0.25042522  0.87412275
   0.87535988  0.49935877  0.12485861
   0.87494605  0.49942877  0.37503013
   0.87440640  0.50047582  0.62491948
   0.87475268  0.50041623  0.87501989
   0.87488505  0.74934737  0.12568851
   0.87465641  0.74932467  0.37566142
   0.87428064  0.75050411  0.62564400
   0.87437288  0.75038653  0.87564759
   0.18828716  0.18725225  0.06188637
   0.18832873  0.18696447  0.31192443
   0.18747943  0.18771089  0.56185573
   0.18764932  0.18820612  0.81181575
   0.18782129  0.43724609  0.06229823
   0.18783242  0.43692067  0.31231463
   0.18730256  0.43789968  0.56225913
   0.18709609  0.43820673  0.81240365
   0.18737178  0.68720699  0.06319466
   0.18739894  0.68685885  0.31328040
   0.18681238  0.68779811  0.56317588
   0.18677534  0.68810767  0.81311414
   0.18779592  0.93720414  0.06276422
   0.18783076  0.93688789  0.31277457
   0.18724117  0.93778448  0.56273554
   0.18716035  0.93813249  0.81272545
   0.43826622  0.18723888  0.06184779
   0.43829024  0.18690592  0.31183239
   0.43769803  0.18805548  0.56177998
   0.43764516  0.18818863  0.81193349
   0.43783955  0.43724235  0.06238217
   0.43791705  0.43686836  0.31262020
   0.43719441  0.43828762  0.81219182
   0.43735749  0.68720872  0.06332176
   0.43763029  0.68694917  0.31324392
   0.43767060  0.68686754  0.56289454
   0.43677854  0.68823510  0.81320541
   0.43777414  0.93725795  0.06278492
   0.43782937  0.93686324  0.31284622
   0.43717179  0.93789177  0.56280146
   0.43712886  0.93823136  0.81279149
   0.68830682  0.18709799  0.06168438
   0.68836661  0.18670940  0.31172669
   0.68759216  0.18788090  0.56169574
   0.68754803  0.18819019  0.81165791
   0.68783770  0.43710733  0.06223460
   0.68823078  0.43689761  0.31184277
   0.68581017  0.43894067  0.56163906
   0.68709242  0.43822899  0.81208000
   0.68732200  0.68709604  0.06319228
   0.68704244  0.68652784  0.31345805
   0.68748825  0.68864138  0.56342605
   0.68681470  0.68823628  0.81339929
   0.68777602  0.93708652  0.06270725
   0.68778910  0.93672868  0.31270196
   0.68717001  0.93781236  0.56267745
   0.68714142  0.93817765  0.81270876
   0.93831511  0.18709281  0.06172471
   0.93837596  0.18677114  0.31174940
   0.93755234  0.18782043  0.56174602
   0.93757644  0.18807298  0.81170794
   0.93788117  0.43710892  0.06213479
   0.93779529  0.43682381  0.31224467
   0.93711350  0.43776496  0.56220826
   0.93713592  0.43805348  0.81215559
   0.93732625  0.68708010  0.06313562
   0.93728164  0.68676808  0.31313259
   0.93672021  0.68772896  0.56308367
   0.93676674  0.68803277  0.81310633
   0.93779898  0.93706884  0.06263134
   0.93780568  0.93673001  0.31264042
   0.93722313  0.93777711  0.56261617
   0.93715976  0.93804717  0.81260937
   0.12551009  0.12500600  0.99949215
   0.12586892  0.12433848  0.24954128
   0.12517761  0.12494679  0.49955861
   0.12495790  0.12573757  0.74947159
   0.12535482  0.37500512  0.99951097
   0.12565455  0.37436515  0.24958175
   0.12514990  0.37507742  0.49955557
   0.12478903  0.37572780  0.74952368
   0.12476405  0.62498764  0.00049456
   0.12501533  0.62431937  0.25053672
   0.12457689  0.62498483  0.50050084
   0.12423902  0.62565682  0.75044875
   0.12489191  0.87496693  0.00048308
   0.12521430  0.87426503  0.25051634
   0.12462810  0.87506890  0.50046582
   0.12439837  0.87566596  0.75045161
   0.37547659  0.12507274  0.99954633
   0.37583137  0.12435081  0.24959197
   0.37530578  0.12519337  0.49955007
   0.37494845  0.12583891  0.74953942
   0.37536358  0.37509404  0.99956917
   0.37580222  0.37448653  0.24975770
   0.37540535  0.37551074  0.49982701
   0.37485739  0.37590949  0.74941372
   0.37473564  0.62504607  0.00063047
   0.37508322  0.62421163  0.25075521
   0.37543240  0.62379109  0.50012903
   0.37470203  0.62571019  0.75001289
   0.37485474  0.87504688  0.00057929
   0.37520114  0.87433044  0.25060398
   0.37472972  0.87499893  0.50058959
   0.37435338  0.87576329  0.75051529
   0.62549834  0.12497594  0.99936747
   0.62588290  0.12414786  0.24936609
   0.62524298  0.12509284  0.49937995
   0.62488495  0.12580125  0.74935558
   0.62533699  0.37495981  0.99945408
   0.62568036  0.37411847  0.24940318
   0.62393883  0.37578761  0.49868497
   0.62453065  0.37643195  0.74869292
   0.62470431  0.62493287  0.00057282
   0.62474846  0.62392761  0.25087968
   0.62394650  0.62478932  0.50360951
   0.62440435  0.62606092  0.75101228
   0.62486091  0.87496205  0.00053826
   0.62516646  0.87404916  0.25066244
   0.62462654  0.87498248  0.50053716
   0.62435503  0.87586840  0.75058241
   0.87551476  0.12487981  0.99935228
   0.87588665  0.12416490  0.24937614
   0.87535988  0.12485861  0.49935877
   0.87488505  0.12568851  0.74934737
   0.87535176  0.37487510  0.99936039
   0.87574376  0.37417806  0.24937924
   0.87494605  0.37503013  0.49942877
   0.87465641  0.37566142  0.74932467
   0.87474399  0.62487105  0.00047808
   0.87483478  0.62419455  0.25061640
   0.87440640  0.62491948  0.50047582
   0.87428064  0.62564400  0.75050411
   0.87487732  0.87485634  0.00040506
   0.87515160  0.87412275  0.25042522
   0.87475268  0.87501989  0.50041623
   0.87437288  0.87564759  0.75038653
 
 position of ions in cartesian coordinates  (Angst):
   8.07312452  8.09975070  8.09975070
   6.16547835  8.03370971  6.18272011
   8.04760048  6.15743885  6.15743885
   6.16547835  6.18272011  8.03370971
   0.89881760  0.88469298  0.88469298
   0.90009420  0.88095464  4.44231141
   0.89029320  0.89449544  7.99921347
   0.89141413  0.90022639 11.55614410
   0.90009420  4.44231141  0.88095464
   0.90040693  4.43870590  4.43870590
   0.89175016  4.45293933  7.99567919
   0.89199806  4.45767194 11.55234413
   0.89029320  7.99921347  0.89449544
   0.89175016  7.99567919  4.45293933
   0.88375721  8.00952814  8.00952814
   0.88400610  8.01437388 11.56660411
   0.89141413 11.55614410  0.90022639
   0.89199806 11.55234413  4.45767194
   0.88400610 11.56660411  8.01437388
   0.88472621 11.57148977 11.57148977
   4.45561544  0.88716513  0.88716513
   4.45673466  0.88283749  4.44447976
   4.44864856  0.89782582  8.00124371
   4.44856274  0.90258953 11.55836263
   4.45673466  4.44447976  0.88283749
   4.45887545  4.44187567  4.44187567
   4.44250690  4.44826992  7.99250377
   4.45051854  4.46088938 11.55393898
   4.44864856  8.00124371  0.89782582
   4.44250690  7.99250377  4.44826992
   4.44643744  8.00911321  8.00911321
   4.44414622  8.01633281 11.56544288
   4.44856274 11.55836263  0.90258953
   4.45051854 11.55393898  4.46088938
   4.44414622 11.56544288  8.01633281
   4.44168705 11.57332358 11.57332358
   8.01272895  0.88550015  0.88550015
   8.01429556  0.88247374  4.44385116
   8.00547736  0.89826284  8.00078464
   8.00543560  0.90329270 11.55814238
   8.01429556  4.44385116  0.88247374
   8.01209469  4.42874049  4.42874049
   8.00276066  4.46278880  7.99150352
   8.00522888  4.46424986 11.54940347
   8.00547736  8.00078464  0.89826284
   8.00276066  7.99150352  4.46278880
   7.99844727  8.01846545 11.56962305
   8.00543560 11.55814238  0.90329270
   8.00522888 11.54940347  4.46424986
   7.99844727 11.56962305  8.01846545
   7.99852011 11.57833579 11.57833579
  11.57066387  0.88541361  0.88541361
  11.57209490  0.88098192  4.44274571
  11.56275951  0.89658030  8.00008865
  11.56271970  0.90201695 11.55708020
  11.57209490  4.44274571  0.88098192
  11.57365949  4.43906164  4.43906164
  11.55855550  4.45745052  7.99520229
  11.56245853  4.45923174 11.55248736
  11.56275951  8.00008865  0.89658030
  11.55855550  7.99520229  4.45745052
  11.55394541  8.01162768  8.01162768
  11.55827909  8.01607357 11.57098929
  11.56271970 11.55708020  0.90201695
  11.56245853 11.55248736  4.45923174
  11.55827909 11.57098929  8.01607357
  11.55639615 11.57361355 11.57361355
   0.00869196 14.23049197 14.23049197
   0.01142787 14.21854414  3.55905307
   0.00429521 14.22976081  7.11615160
  14.22670788  0.01415008 10.67300526
   0.01142787  3.55905307 14.21854414
   0.01456889  3.54723602  3.54723602
   0.00604608  3.55893701  7.10484789
  14.23097023  3.57169701 10.66400510
   0.00429521  7.11615160 14.22976081
   0.00604608  7.10484789  3.55893701
  14.22805013  7.11840412  7.11840412
  14.22467396  7.12838420 10.67501462
  14.22670788 10.67300526  0.01415008
  14.23097023 10.66400510  3.57169701
  14.22467396 10.67501462  7.12838420
  14.22157166 10.68561581 10.68561581
   3.56033660  0.00134846  0.00134846
   3.56844224 14.22116083  3.56165005
   3.55921794  0.00308677  7.11603022
   3.55479814  0.01352708 10.67291810
   3.56844224  3.56165005 14.22116083
   3.57195964  3.55095940  3.55095940
   3.55977214  3.55695231  7.10777923
   3.56076322  3.57205908 10.66303292
   3.55921794  7.11603022  0.00308677
   3.55977214  7.10777923  3.55695231
   3.56092402  7.11734507  7.11734507
   3.55166324  7.12743100 10.67612474
   3.55479814 10.67291810  0.01352708
   3.56076322 10.66303292  3.57205908
   3.55166324 10.67612474  7.12743100
   3.55067369 10.68409130 10.68409130
   7.11734642  0.00162698  0.00162698
   7.12566289 14.22070384  3.56216894
   7.11593633  0.00400908  7.11620503
   7.11163723  0.01524021 10.67328017
   7.12566289  3.56216894 14.22070384
   7.12970715  3.54337220  3.54337220
   7.12059626  3.56594050  7.10496430
   7.11584416  3.57185717 10.66373508
   7.11593633  7.11620503  0.00400908
   7.12059626  7.10496430  3.56594050
   7.10980110  7.13096196 10.67134232
   7.11163723 10.67328017  0.01524021
   7.11584416 10.66373508  3.57185717
   7.10980110 10.67134232  7.13096196
   7.10784016 10.69302852 10.69302852
  10.68022408 14.23222537 14.23222537
  10.68317984 14.21922246  3.56039659
  10.67575030 14.23185498  7.11756595
  10.66915030  0.01410820 10.67217826
  10.68317984  3.56039659 14.21922246
  10.68641075  3.54818872  3.54818872
  10.68064221  3.55732471  7.10364355
  10.67174861  3.57316413 10.66090097
  10.67575030  7.11756595 14.23185498
  10.68064221  7.10364355  3.55732471
  10.66508051  7.11796473  7.11796473
  10.67149344  7.13032874 10.67917182
  10.66915030 10.67217826  0.01410820
  10.67174861 10.66090097  3.57316413
  10.67149344 10.67917182  7.13032874
  10.66446579 10.68621953 10.68621953
   0.90424178  2.65903166  2.65903166
   0.89744937  2.66576014  6.21655504
   0.89112542  2.67946838  9.77317505
   0.89876800  2.67351348 13.33012152
   0.89744937  6.21655504  2.66576014
   0.89208484  6.22344180  6.22344180
   0.88616678  6.23647667  9.77993019
   0.89266232  6.23071524 13.33760044
   0.89112542  9.77317505  2.67946838
   0.88616678  9.77993019  6.23647667
   0.88037479  9.79314976  9.79314976
   0.88743922  9.78750463 13.35051219
   0.89876800 13.33012152  2.67351348
   0.89266232 13.33760044  6.23071524
   0.88743922 13.35051219  9.78750463
   0.89397791 13.34485890 13.34485890
   4.46081251  2.66151868  2.66151868
   4.45469994  2.66828403  6.21796833
   4.44998222  2.68224013  9.77434401
   4.45579613  2.67597020 13.33238823
   4.45469994  6.21796833  2.66828403
   4.45217949  6.22542698  6.22542698
   4.44095882  6.24262003  9.78479790
   4.45076113  6.23325745 13.33904266
   4.44998222  9.77434401  2.68224013
   4.44095882  9.78479790  6.24262003
   4.43992213  9.79336813  9.79336813
   4.44451851  9.78980467 13.35274763
[...]
 131      -2.425     0.575     3.426       0.876
 132      -4.994     1.066    11.696       0.518
 133       2.679    -0.948    12.389      -0.293
 134       1.649    -0.436     5.381      -0.388
 135      -4.994     1.066    11.696       0.518
 136      -4.380     4.241    28.321       0.304
 137      -3.237     2.034    20.078       0.263
 138      17.149    10.181    26.831      -0.260
 139       2.679    -0.948    12.389      -0.293
 140      -3.237     2.034    20.078       0.263
 141      -2.910    -0.819    10.559       0.198
 142      -2.839     1.661     3.302       1.363
 143       1.649    -0.436     5.380      -0.388
 144      17.149    10.181    26.831      -0.260
 145      -2.839     1.661     3.302       1.363
 146       0.938    -0.055     1.307      -0.760
 147      -6.027    -3.863    10.186       0.212
 148      -4.254     1.781    38.419       0.157
 149      61.229    59.501   124.035      -0.014
 150      -3.134     1.449    11.022       0.416
 151      -4.253     1.782    38.419       0.157
 152     507.125   346.934   529.270      -0.303
 153    1411.476  1390.500  1958.549      -0.011
 154      -7.884    -5.093    16.443       0.170
 155      61.230    59.502   124.036      -0.014
 156    1411.475  1390.500  1958.549      -0.011
 157      36.154    22.635    67.794      -0.199
 158      -3.885     0.080    11.813       0.336
 159      -3.134     1.449    11.022       0.416
 160      -7.885    -5.094    16.443       0.170
 161      -3.886     0.079    11.813       0.336
 162      -3.392     3.023     3.922       1.636
 163      90.463    89.120   146.726      -0.009
 164      68.832    26.262    94.542      -0.450
 165      19.044   -13.621   -19.778       1.652
 166      -4.054     0.887    11.859       0.417
 167      68.824    26.251    94.538      -0.450
 168     319.187   303.070   490.483      -0.033
 169      -3.376    -1.866    24.345       0.062
 170      19.044   -13.621   -19.778       1.652
 171     319.193   303.075   490.484      -0.033
 172     -21.580   -17.602    28.959       0.137
 173      -4.851    -1.008    12.948       0.297
 174      -4.054     0.886    11.859       0.417
 175      -3.366    -1.855    24.346       0.062
 176      -4.851    -1.008    12.948       0.297
 177       2.727     2.433    -5.780       0.051
 178      14.226    13.527    35.582      -0.020
 179     101.873   100.316   166.181      -0.009
 180      -4.703    -2.918     9.664       0.185
 181      -2.686     0.757     2.794       1.232
 182     101.873   100.316   166.181      -0.009
 183      18.672     7.039    69.521      -0.167
 184      -5.518    -1.729    24.898       0.152
 185      -5.914     1.353     6.718       1.082
 186      -4.703    -2.918     9.664       0.185
 187      -5.518    -1.729    24.898       0.152
 188      -5.137    -2.924    11.744       0.188
 189      -3.215     0.824     3.791       1.066
 190      -2.686     0.757     2.794       1.232
 191      -5.914     1.353     6.718       1.082
 192      -3.215     0.824     3.791       1.066
 193       0.718     0.651    -1.014       0.066
 194       0.727    -0.514    -2.051       0.605
 195       4.492     0.814    -6.027       0.610
 196       3.231    -0.707    -6.419       0.613
 197       0.828    -0.361    -1.888       0.629
 198       4.492     0.814    -6.027       0.610
 199     -10.211    -9.126    14.183       0.076
 200      -6.772    -3.903    16.106       0.178
 201       3.258     0.329    -6.889       0.425
 202       3.231    -0.707    -6.419       0.613
 203      -6.772    -3.903    16.106       0.178
 204      -7.103    -5.068    10.728       0.190
 205      -3.304     2.488     4.632       1.250
 206       0.828    -0.361    -1.888       0.629
 207       3.258     0.329    -6.889       0.425
 208      -3.304     2.488     4.632       1.250
 209       0.585    -0.328    -0.710       1.287
 210       3.145    -1.266    -4.292       1.028
 211      -5.466    -2.435    15.613       0.194
 212     -14.070     6.109   -17.497      -1.153
 213       4.161    -2.522    -5.262       1.270
 214      -5.466    -2.435    15.613       0.194
 215     -59.136   -13.119   -68.148      -0.675
 216     -89.905   -10.091   -94.372      -0.846
 217     -13.739     5.808   -18.236      -1.072
 218     -14.070     6.109   -17.497      -1.153
 219     -89.905   -10.091   -94.372      -0.846
 220     -77.250   -47.041   -92.575      -0.326
 221       8.689    -7.314    -9.584       1.670
 222       4.161    -2.522    -5.262       1.270
 223     -13.739     5.808   -18.236      -1.072
 224       8.689    -7.314    -9.584       1.670
 225       3.543     0.703    -3.575       0.794
 226      24.883    19.990    44.251      -0.111
 227     -18.528    17.417   -22.009      -1.633
 228      17.323   -15.421   -19.808       1.653
 229      37.518    32.614    63.408      -0.077
 230     -18.528    17.417   -22.010      -1.633
 231    -846.700  -667.061  -892.357      -0.201
 232    -525.962  -244.669  -591.515      -0.476
 233     -15.821   -13.983    21.559       0.085
 234      17.323   -15.421   -19.808       1.653
 235    -525.962  -244.669  -591.514      -0.476
 236     -29.862    -6.519   105.128       0.222
 237     -13.746   -10.784    14.355       0.206
 238      37.518    32.614    63.408      -0.077
 239     -15.821   -13.982    21.559       0.085
 240     -13.746   -10.784    14.355       0.206
 241      -5.601     2.532     7.013       1.160
 242       4.148    -2.881    -4.448       1.580
 243     -15.196     3.371   -20.513      -0.905
 244      -7.622    -4.871     9.646       0.285
 245      -2.781    -0.737     3.893       0.525
 246     -15.196     3.371   -20.513      -0.905
 247    -110.661   -31.270  -114.333      -0.694
 248     -35.000    10.308   -41.097      -1.102
 249      -7.100    -1.472    10.630       0.529
 250      -7.622    -4.871     9.646       0.285
 251     -35.000    10.309   -41.097      -1.102
 252     -18.632    16.936   -19.320      -1.841
 253      -5.744    -1.491     7.682       0.554
 254      -2.781    -0.737     3.893       0.525
 255      -7.100    -1.472    10.630       0.529
 256      -5.744    -1.491     7.682       0.554
 257       1.964     0.149    -2.432       0.746
 258      -2.464     0.420     3.367       0.857
 259      -4.572     1.501    12.069       0.503
 260       3.130    -0.476    13.001      -0.277
 261       1.818    -0.247     5.561      -0.371
 262      -5.875    -3.642    10.394       0.215
 263      -4.309     1.989    38.580       0.163
 264      54.240    52.450   114.166      -0.016
 265      -3.316     1.269    10.745       0.427
 266      90.430    89.082   144.594      -0.009
 267      64.718    23.468    91.517      -0.451
 268      18.258   -14.267   -20.225       1.608
 269      -3.741     1.286    12.081       0.416
 270      12.102    11.417    32.238      -0.021
 271      97.622    96.124   158.265      -0.009
 272      -4.749    -2.960     9.458       0.189
 273      -2.631     0.746     2.785       1.213
 274      -4.141     1.889    12.582       0.479
 275       5.493    -3.322    29.337      -0.300
 276      -3.470     1.936    19.929       0.271
 277      17.744    10.755    27.551      -0.254
 278       4.318    -1.694    41.124      -0.146
 279     517.000   362.605   543.938      -0.284
 280    1456.881  1436.956  2021.546      -0.010
 281      -7.939    -5.160    16.503       0.168
 282      65.052    23.741    91.301      -0.452
 283     314.194   298.290   482.402      -0.033
 284      -2.557    -1.164    25.005       0.056
 285     104.304   102.696   166.859      -0.010
 286      16.437     4.561    66.082      -0.180
 287      -5.169    -1.360    24.980       0.153
 288      -5.564     1.731     7.015       1.040
 289       3.592    -0.052    13.599      -0.268
 290      -3.315     2.302    20.140       0.279
 291      -2.467    -0.433    11.140       0.183
 292      -2.662     1.854     3.497       1.291
 293      63.494    61.536   128.190      -0.015
 294    1433.814  1413.660  2011.600      -0.010
 295      44.056    30.272    75.948      -0.181
 296      -3.367     0.626    12.453       0.321
 297     -18.804   -12.661    19.984       0.307
 298     343.988   328.023   515.198      -0.031
 299     -15.530   -11.400    37.050       0.111
 300      -4.753    -0.870    13.117       0.296
 301      -4.780    -2.975     9.592       0.188
 302      -5.900    -2.073    24.546       0.156
 303      -4.681    -2.418    12.293       0.184
 304      -3.215     0.869     3.798       1.075
 305       1.928    -0.151     5.840      -0.356
 306      16.520     9.570    26.491      -0.262
 307      -2.699     1.774     3.486       1.283
 308       0.943    -0.047     1.350      -0.733
 309       2.482    -2.188    12.324      -0.379
 310      -8.142    -5.272    16.358       0.175
 311      -3.543     0.386    12.302       0.319
 312      -3.335     3.108     4.043       1.594
 313      -3.071     1.820    12.866       0.380
 314      -2.482    -1.096    25.346       0.055
 315      -4.944    -1.070    12.921       0.300
 316       2.934     2.566    -5.655       0.065
 317       2.722     0.607    -2.753       0.768
 318      -5.646     1.607     6.944       1.045
 319      -3.286     0.764     3.683       1.100
 320       0.748     0.666    -0.989       0.083
 321       0.780    -0.444    -1.964       0.623
 322       4.417     0.758    -6.097       0.600
 323       3.294    -0.559    -6.308       0.611
 324       0.806    -0.353    -1.877       0.617
 325       3.083    -1.290    -4.365       1.002
 326      -5.929    -2.906    15.030       0.201
 327     -13.540     6.618   -17.000      -1.186
 328       4.308    -2.399    -5.174       1.296
 329      24.542    19.691    43.647      -0.111
 330      18.423   -17.715   -21.090       1.714
 331      17.471   -15.286   -19.547       1.676
 332      33.877    28.921    59.358      -0.083
 333      -4.027    -2.459     4.491       0.349
 334     -13.696     4.750   -19.108      -0.965
 335      -6.420    -3.627    10.892       0.256
 336      -2.626    -0.612     3.976       0.506
 337       4.111     0.366    -6.446       0.581
 338     -10.101    -9.014    14.235       0.076
 339      -7.256    -4.381    15.573       0.185
 340       3.157     0.245    -6.970       0.418
 341      -6.910    -3.981    13.945       0.210
 342     -55.780    -8.948   -64.734      -0.723
 343     -97.848   -17.945  -101.911      -0.784
 344     -14.359     5.308   -18.806      -1.046
 345      18.357   -17.578   -21.078       1.705
 346    -874.245  -688.859  -915.521      -0.202
 347    -524.638  -242.939  -588.627      -0.479
 348     -15.433   -13.576    21.760       0.085
 349     -14.829     3.694   -20.216      -0.916
 350     -95.657   -15.423   -99.278      -0.808
 351     -36.506     8.249   -42.238      -1.060
 352      -7.006    -1.393    10.590       0.530
 353       3.317    -0.627    -6.333       0.623
 354      -7.153    -4.341    15.717       0.179
 355      -6.873    -4.878    11.015       0.181
 356      -3.291     2.511     4.663       1.244
 357     -14.254     5.998   -17.619      -1.149
 358    -102.501   -23.257  -106.704      -0.743
 359     -76.639   -46.300   -92.464      -0.328
 360       8.347    -7.827    -9.985       1.620
 361      16.543   -16.265   -20.553       1.596
 362    -542.143  -271.100  -608.443      -0.445
 363     -24.101     0.466   111.732       0.220
 364     -13.937   -11.044    14.238       0.203
 365      -6.283    -3.468    11.318       0.249
 366     -38.103     6.715   -44.278      -1.012
 367     -18.888    16.590   -19.758      -1.796
 368      -5.757    -1.431     7.673       0.564
 369       0.795    -0.427    -1.955       0.625
 370       3.358     0.405    -6.825       0.433
 371      -3.525     2.245     4.448       1.297
 372       0.579    -0.337    -0.714       1.283
 373       3.839    -2.904    -5.666       1.190
 374     -15.084     4.524   -19.514      -1.005
 375      -8.301     7.878   -10.391      -1.557
 376       3.490     0.646    -3.686       0.772
 377      35.834    30.934    61.521      -0.080
 378     -16.366   -14.562    21.006       0.086
 379     -13.836   -10.847    14.409       0.207
 380      -5.096     3.035     7.705       1.055
 381      -2.685    -0.689     3.973       0.502
 382      -6.986    -1.369    10.736       0.523
 383      -5.703    -1.429     7.706       0.555
 384       1.965     0.139    -2.377       0.768
 385      -2.464     0.420     3.367       0.857
 386      -5.875    -3.642    10.394       0.215
 387      90.430    89.082   144.594      -0.009
 388      12.102    11.417    32.238      -0.021
 389      -4.572     1.501    12.069       0.503
 390      -4.309     1.989    38.580       0.163
 391      64.719    23.467    91.515      -0.451
 392      97.622    96.124   158.265      -0.009
 393       3.130    -0.476    13.001      -0.277
 394      54.240    52.450   114.166      -0.016
 395      18.258   -14.267   -20.225       1.608
 396      -4.749    -2.960     9.458       0.189
 397       1.818    -0.247     5.561      -0.371
 398      -3.316     1.269    10.745       0.427
 399      -3.742     1.286    12.081       0.416
 400      -2.631     0.746     2.785       1.213
 401      -4.141     1.889    12.582       0.479
 402       4.318    -1.695    41.123      -0.146
 403      65.059    23.748    91.301      -0.452
 404     104.304   102.696   166.859      -0.010
 405       5.497    -3.319    29.338      -0.300
 406     517.006   362.609   543.939      -0.284
 407      16.439     4.563    66.082      -0.180
 408      -3.470     1.936    19.928       0.271
 409    1456.881  1436.955  2021.545      -0.010
 410     314.193   298.289   482.401      -0.033
 411      -5.169    -1.359    24.980       0.153
 412      17.744    10.755    27.551      -0.254
 413      -7.939    -5.161    16.503       0.168
 414      -2.553    -1.160    25.006       0.056
 415      -5.564     1.731     7.015       1.040
 416       3.592    -0.051    13.599      -0.268
 417      63.493    61.536   128.189      -0.015
 418     -18.804   -12.661    19.984       0.307
 419      -4.780    -2.975     9.592       0.188
 420      -3.314     2.303    20.140       0.279
 421    1433.814  1413.659  2011.599      -0.010
 422     343.981   328.016   515.197      -0.031
 423      -5.900    -2.073    24.546       0.156
 424      -2.467    -0.433    11.140       0.183
 425      44.056    30.271    75.948      -0.182
 426     -15.530   -11.401    37.050       0.111
 427      -4.681    -2.418    12.293       0.184
 428      -2.662     1.854     3.497       1.291
 429      -3.368     0.625    12.452       0.321
 430      -4.753    -0.871    13.117       0.296
 431      -3.215     0.869     3.798       1.075
 432       1.928    -0.151     5.840      -0.356
 433       2.482    -2.188    12.324      -0.379
 434      -3.071     1.820    12.866       0.380
 435       2.722     0.607    -2.753       0.768
 436      16.520     9.570    26.492      -0.262
 437      -8.142    -5.272    16.358       0.175
 438      -2.483    -1.098    25.346       0.055
 439      -5.646     1.607     6.944       1.045
 440      -2.699     1.774     3.486       1.283
 441      -3.543     0.386    12.302       0.319
 442      -4.944    -1.070    12.921       0.300
 443      -3.286     0.764     3.683       1.100
 444       0.943    -0.047     1.350      -0.733
 445      -3.335     3.108     4.043       1.594
 446       2.934     2.566    -5.655       0.065
 447       0.748     0.666    -0.989       0.083
 448       0.780    -0.444    -1.964       0.623
 449       3.083    -1.290    -4.365       1.002
 450      24.542    19.691    43.647      -0.111
 451      -4.027    -2.459     4.491       0.349
 452       4.417     0.758    -6.097       0.600
 453      -5.929    -2.906    15.030       0.201
 454      18.423   -17.715   -21.090       1.714
 455     -13.696     4.750   -19.108      -0.965
 456       3.294    -0.559    -6.308       0.611
 457     -13.540     6.618   -17.000      -1.186
 458      17.471   -15.286   -19.547       1.676
 459      -6.420    -3.627    10.892       0.256
 460       0.806    -0.353    -1.877       0.617
 461       4.308    -2.399    -5.174       1.296
 462      33.877    28.921    59.358      -0.083
 463      -2.626    -0.612     3.976       0.506
 464       4.111     0.366    -6.446       0.581
 465      -6.910    -3.981    13.945       0.210
 466      18.357   -17.578   -21.078       1.705
 467     -14.829     3.694   -20.216      -0.916
 468     -10.102    -9.015    14.235       0.076
 469     -55.781    -8.948   -64.735      -0.723
 470    -874.245  -688.859  -915.522      -0.202
 471     -95.658   -15.423   -99.279      -0.808
 472      -7.257    -4.382    15.573       0.185
 473     -97.848   -17.945  -101.911      -0.784
 474    -524.638  -242.939  -588.627      -0.479
 475     -36.506     8.249   -42.238      -1.060
 476       3.157     0.245    -6.970       0.418
 477     -14.359     5.308   -18.806      -1.046
 478     -15.432   -13.576    21.760       0.085
 479      -7.006    -1.393    10.590       0.530
 480       3.317    -0.627    -6.333       0.623
 481     -14.254     5.998   -17.618      -1.149
 482      16.543   -16.265   -20.553       1.596
 483      -6.283    -3.468    11.318       0.249
 484      -7.153    -4.341    15.717       0.179
 485    -102.501   -23.257  -106.704      -0.743
 486    -542.143  -271.100  -608.444      -0.445
 487     -38.103     6.715   -44.278      -1.012
 488      -6.873    -4.879    11.015       0.181
 489     -76.639   -46.300   -92.464      -0.328
 490     -24.101     0.466   111.732       0.220
 491     -18.888    16.590   -19.758      -1.796
 492      -3.291     2.511     4.663       1.244
 493       8.347    -7.827    -9.985       1.620
 494     -13.937   -11.044    14.238       0.203
 495      -5.757    -1.431     7.673       0.564
 496       0.795    -0.427    -1.955       0.625
 497       3.839    -2.904    -5.666       1.190
 498      35.834    30.934    61.521      -0.080
 499      -2.685    -0.689     3.973       0.502
 500       3.358     0.405    -6.825       0.433
 501     -15.084     4.525   -19.514      -1.005
 502     -16.366   -14.562    21.006       0.086
 503      -6.986    -1.369    10.736       0.523
 504      -3.525     2.245     4.448       1.297
 505      -8.301     7.878   -10.391      -1.557
 506     -13.836   -10.847    14.409       0.207
 507      -5.703    -1.429     7.706       0.555
 508       0.579    -0.337    -0.714       1.283
 509       3.490     0.646    -3.686       0.772
 510      -5.096     3.035     7.705       1.055
 511       1.965     0.139    -2.377       0.768
 ---------------------------------------------------------------------



--------------------------------------------------------------------------------------------------------


 writing wavefunctions
     LOOP+:  cpu time  312.2019: real time  343.1063
    4ORBIT:  cpu time    0.0000: real time    0.0000

 total amount of memory used by VASP MPI-rank0   128872. kBytes
=======================================================================

   base      :      30000. kBytes
   nonlr-proj:       7983. kBytes
   fftplans  :       7926. kBytes
   grid      :      22702. kBytes
   one-center:        393. kBytes
   wavefun   :      59868. kBytes
 
  
  
 General timing and accounting informations for this job:
 ========================================================
  
                  Total CPU time used (sec):      345.091
                            User time (sec):      319.541
                          System time (sec):       25.550
                         Elapsed time (sec):      384.248
  
                   Maximum memory used (kb):      267428.
                   Average memory used (kb):           0.
  
                          Minor page faults:       305521
                          Major page faults:            0
                 Voluntary context switches:         7450
